LAMMPS data file via write_data, version 7 Feb 2024, timestep = 70000, units = metal

500 atoms
1 atom types

-0.36593119476545866 18.415931194766394 xlo xhi
-0.36593119476545866 18.415931194766394 ylo yhi
-0.36593119476545866 18.415931194766394 zlo zhi

Masses

1 63.546

Atoms # atomic

22 1 1.979279972365699 0.7880179449015872 1.9270227917189873 0 0 0
351 1 2.8171326229349205 2.7299614251383124 3.429217746828521 0 0 0
161 1 1.2744259982453785 3.1225061957158853 1.5779656740430892 0 0 0
76 1 -0.03229014150485826 1.375994426410943 0.07477072614823632 1 0 0
492 1 0.8673440783727389 0.029242305033142235 3.907109723417646 0 1 1
44 1 -0.16962719192926667 3.6757724486986154 -0.06879652340193343 0 0 0
420 1 1.8476012820295273 -0.24260282400555155 -0.34457061261367605 1 0 1
287 1 4.110454752726834 2.71993235751248 0.9268862362657408 0 0 1
403 1 3.492149318962213 0.6012653391189061 3.7108032249252503 0 0 1
455 1 4.016556804965214 0.19787547135151906 -0.07966853826187076 0 1 1
215 1 6.330985327744296 1.8180952886121506 0.1180604213226234 0 1 0
89 1 5.352966798848761 1.6331285752072175 2.468183802722943 0 1 -1
482 1 5.4566216953769136 3.8635326253255027 2.79169207088678 0 1 1
36 1 8.843453255879984 1.0167882401014239 1.67428374090164 1 0 0
185 1 9.19983469695126 2.9583857512639837 -0.04422126044106023 -1 1 0
478 1 7.421497246675473 2.7281643507367823 1.976957867193161 0 0 1
252 1 9.903106531944678 1.9069978723471928 3.8889086991339497 0 0 1
174 1 9.890491520768427 3.830183511605182 1.8956792229786221 1 0 0
92 1 7.761038340314268 1.0504189608561194 3.7358330160533972 0 1 -1
32 1 10.136299823739439 -0.23094538246826346 0.22434021123245462 0 0 0
381 1 12.59992135726242 0.34459725545234177 0.03284974740075852 -1 1 0
375 1 12.450218186023358 3.5557763552925943 1.1357182493559184 0 1 1
61 1 13.694116971888459 1.3336880884721516 2.374626987607595 -1 0 0
216 1 11.773880499894878 3.3217481890882206 3.4705215129035683 0 0 0
224 1 11.255904831134249 1.58224273410832 1.584016412324078 0 0 0
125 1 12.119027131597038 0.8769672906061619 4.255751254876729 -1 1 0
184 1 15.929417396744427 2.7102944012596635 3.763791114900119 -1 0 0
493 1 18.115014018983217 1.7221371763463784 3.148672484047439 0 1 0
160 1 16.782477384582624 2.410032034028756 0.9547339708747444 0 0 0
436 1 14.829446220401126 3.9553006641874067 1.891759570067896 0 0 0
235 1 16.013353197203624 0.6066150603077374 2.657251714695541 -1 1 1
24 1 17.57037237467131 4.084999755470513 2.7021030498915115 0 0 0
81 1 14.74408832979125 1.1811173556445904 0.23155041958895684 0 1 0
393 1 16.7053082149598 -0.2899290930310734 -0.13368648617827572 0 0 1
438 1 0.983417154271474 5.642409383415014 3.7227492756707887 1 0 1
212 1 2.64144898017076 5.1096584694457885 2.3060965468568346 0 0 0
29 1 1.7994452297631613 7.865348459987196 2.8890967072614298 0 0 0
69 1 -0.005261465096402906 5.718106159467936 1.3193022674853012 1 0 0
71 1 2.452499271288198 6.96273941346987 0.6607556951268951 1 0 0
435 1 0.3167307120631694 8.126920382668104 0.980120456487158 1 0 1
254 1 2.271963172434254 4.71861504074361 -0.1878954242002866 1 1 1
187 1 4.54791918200509 5.425374735990915 0.8864354754645065 -1 1 1
474 1 3.85943270324786 4.980824019781311 4.257770925120528 0 0 1
237 1 6.494819303877502 4.349524723522195 0.1266790543516399 1 0 0
208 1 5.428796217244659 6.6061702963640965 2.6501883916361773 0 0 0
268 1 6.506670270532224 6.681392604960402 -0.0764520712691047 0 0 0
398 1 5.178684208010225 8.64377150519333 1.4191870090695171 0 0 1
79 1 7.955811718346739 4.701950667623398 3.3802508591605767 0 0 0
477 1 7.9930472667909775 7.005332987037978 3.6981122639746076 0 0 0
309 1 7.647147554579714 8.17437120130503 1.3908715866107233 0 -1 0
364 1 8.689836665309842 5.6875362486254675 0.983615434817892 0 0 0
143 1 10.378712035258792 8.451428421671068 3.094051283432287 -1 0 0
14 1 10.20431821952886 6.047997867756309 3.4333692129834943 0 0 0
13 1 9.330986290047663 7.653439196081415 -0.0987853824391704 0 0 0
60 1 11.155642887526083 6.491420251752561 1.232061324005447 1 0 0
49 1 12.599966797771376 7.725371491944189 2.347429016595699 0 0 -1
425 1 13.081568298346385 5.476563498444208 3.4797320868086588 0 -1 0
103 1 13.549207264713946 5.766616300546729 0.7502129913884217 -1 0 0
319 1 14.5573394378372 7.071656595126877 3.593799989534157 0 0 1
498 1 12.356988946171835 7.658082089196704 -0.34328065188829626 0 0 1
293 1 16.66256144654524 5.420528265920924 -0.3099777004027248 -1 0 1
164 1 14.934137940707918 7.9957258445354125 1.0900658808097057 -1 0 0
120 1 16.406992916315975 6.019489193216774 1.9809742152292258 0 -1 0
255 1 16.239180578866694 5.32023543524875 4.219226703986707 -1 0 1
20 1 17.79825038282578 7.045840278875475 4.0368637636271165 0 -1 0
46 1 16.759853307719528 8.487371623833742 2.2646934858296546 0 0 0
202 1 2.3152764727446993 0.7094817589145916 8.358590453466192 0 0 0
43 1 1.5212878514263424 2.9635446251781303 7.446160715621315 0 0 0
84 1 0.14974564193385376 1.279327056143113 8.209538157472808 0 1 -1
186 1 1.763068097985316 1.369281757474006 5.616477811814548 0 1 0
233 1 3.2744153084186296 3.1634554110896835 5.721539621639263 0 0 0
104 1 0.07566411824643982 3.594729532881176 5.470606466603964 0 0 0
152 1 4.87690329515991 0.6244047749875934 8.874139209812846 0 1 -1
222 1 3.691480848630907 0.2610843075084589 5.951038778904131 0 0 0
228 1 4.309463585536998 2.955077048159554 8.12237709421045 0 0 0
65 1 5.848779086555612 1.2664005992213272 6.840553650733575 0 1 0
345 1 5.206191080501536 2.1327414887989957 4.798338282925826 0 0 1
159 1 5.904831718528841 4.005821846489838 6.727821307938272 0 1 0
470 1 6.635259233841511 2.6287579550959004 8.898213016853804 0 0 0
404 1 7.200450900872017 3.0582435033473407 4.87656391370864 0 0 1
205 1 8.799284524722419 2.870413349510041 7.136948436577679 0 0 0
336 1 7.972629369118428 0.850299240633505 8.415286035895454 1 1 0
335 1 8.716538541423294 1.0346701089784713 5.997625355926968 0 0 0
379 1 9.629541563924032 4.220609392403872 5.165026123896716 0 0 0
37 1 11.069864681665903 0.6214382315675853 7.116080801426302 1 0 -1
264 1 13.21299434887918 2.0258921734608397 7.674867724099279 0 0 0
449 1 11.638866305907639 2.595317230116232 5.995616804393548 0 0 0
203 1 14.578477873023191 1.1777153361712038 5.801768866039238 -1 0 0
106 1 13.846711515030604 3.2563794548238705 5.058244974021723 0 0 0
88 1 17.91717354434943 3.8485982354548796 7.713160742725581 0 1 -1
126 1 17.411917563537212 1.4531298359047577 5.694141499021631 -1 0 0
424 1 15.93962667465513 1.694992963446917 7.832513578470191 -1 0 0
326 1 16.10326434761426 3.6612930546384783 6.145759277054271 -1 0 1
296 1 14.881326322066867 -0.01261211826730485 9.005553490261251 0 1 0
163 1 2.670361521476211 4.675952554322693 8.601792875489782 0 1 0
123 1 1.0071082589948508 7.575148429508999 5.424575757675538 0 0 0
367 1 0.32863560503174905 6.134213817579751 8.625708462662736 0 0 1
412 1 1.7056574523522245 5.316797556415761 6.243248845018023 0 0 0
93 1 3.162126872952671 7.426515839480399 4.587846724017319 0 1 0
154 1 2.364500884498759 7.221432466254846 7.869446019223538 1 0 0
62 1 0.26632436039650265 8.874363836549325 8.082828756231399 0 0 0
209 1 5.358299903697674 5.261533881099067 8.638616533807816 0 0 0
310 1 6.247022911740007 5.518361083905212 4.968305280881935 0 -1 0
278 1 4.539431680233913 8.386814862478218 8.334164392871077 1 1 0
463 1 4.06376428530866 6.08624080441984 6.408139293809203 0 0 0
4 1 5.6442844295754355 7.816375590394674 4.789710935930265 0 0 0
1 1 6.276970045738436 6.708120681303377 7.194385900181111 0 0 -1
227 1 7.99048868391124 4.3410693509481675 8.752745391591974 0 0 0
298 1 7.901032986410865 8.3861887988525 5.759764570406591 0 0 0
107 1 8.1746345591061 5.2834591167934315 6.6829014957793005 0 0 0
195 1 8.8388623457891 7.379800577889017 7.898228022617802 0 0 0
12 1 10.838562654335249 8.857977949220881 7.500768872806763 0 0 0
316 1 10.088751466231194 6.8979317075155615 5.921117481396721 0 0 0
231 1 10.42756429464253 5.021082923666115 7.599430152796869 0 0 0
230 1 12.19516270434205 7.444164267962301 4.802894751602181 0 0 0
42 1 14.16387282519237 6.382336903052878 8.984125655089978 -1 1 0
3 1 13.121471367564126 4.613595661968072 7.222350194101969 -1 0 0
199 1 11.822896185789284 5.077663530705256 5.227643091024084 0 1 0
122 1 12.537480303107936 6.805099714855458 7.2406657209824905 0 0 0
197 1 14.176947660103629 8.510489299249276 7.205226084142047 0 1 0
35 1 14.331981985247701 5.952400289536076 5.730510853081884 0 0 0
50 1 15.705533283132187 8.411454515846762 4.982587629983405 0 0 0
146 1 16.014233693215655 6.763764605034841 7.202257274048922 -1 0 0
149 1 15.907725823856214 4.72562098853556 8.28886451045338 0 1 0
454 1 18.001998106368575 5.829961445668292 6.2274672272087495 -1 0 1
283 1 1.185985061286468 3.4187345594794802 12.057003229056782 0 1 0
486 1 1.0819805662577238 0.7932375915380812 10.466213293018209 0 1 1
301 1 2.761189715148378 2.6139269056950085 10.30045490402957 0 0 0
383 1 0.5305107991984062 3.655113554992316 9.506816044273082 -1 1 0
51 1 -0.3381545769641754 4.31038819219775 13.434718988536188 0 0 0
243 1 1.606152313404415 0.6500578646546313 12.89121428846416 0 1 0
75 1 3.400585003107663 0.44104170945743837 11.090339784348055 0 1 -1
236 1 3.5372716502935164 2.7104066431245704 12.74091261532119 1 0 0
171 1 6.899566685840169 4.326728564439837 11.004643900992338 0 1 0
33 1 5.822043592306914 2.0302214444488147 11.176589520575101 1 0 0
39 1 5.913853765990696 3.821561279506416 13.092193658652409 0 0 -1
133 1 4.2043222954332276 4.3217518654714375 10.8430518927396 1 0 0
307 1 4.1212567485854334 0.4293877821200184 13.466517793116747 0 0 0
371 1 7.109616337774098 1.1341903104630264 13.006551333056354 0 1 0
94 1 9.026190199426507 0.03892238785933633 12.480651694794203 0 1 -1
480 1 8.234792012491818 2.2419080299084317 10.577810533140585 0 0 0
325 1 7.880981198352824 -0.14902942985431264 10.689396574624178 0 0 -1
445 1 10.095783285608968 0.17953068227987679 9.713019611950907 -1 0 0
141 1 8.89512345458052 4.024645490530749 12.515713870347664 0 0 0
27 1 10.614645447562713 2.0907465673804437 11.298714406655009 -1 0 0
189 1 10.82048038011468 2.350358496630073 13.622228788765756 -1 1 -1
356 1 10.503533728118386 2.66625810570439 9.114005918821224 0 0 0
413 1 12.483147851935312 4.143109275664867 9.745425155072965 0 0 0
260 1 12.923854405934991 2.4221444976354154 11.66322923767021 0 1 0
167 1 11.512895189376033 0.24528347939472417 12.637555782206977 0 1 0
135 1 12.633173910520025 0.8325546095557068 9.589932855556288 0 0 0
86 1 13.708276579181275 -0.028403766358312765 11.761513991959575 0 1 -1
201 1 13.271919997022247 3.4171759611063637 13.654411713247825 -1 0 0
428 1 14.3994129077901 2.9662043100025404 9.507701550616913 0 0 0
320 1 15.521195576644176 1.064662296891334 11.104260059445442 0 0 0
25 1 18.08266498476597 1.965253485999138 12.251609076374171 0 0 -1
388 1 16.885100194370327 3.784829042922942 11.568710349535667 -1 1 1
313 1 17.05573200112866 2.232760763408082 9.769068179557388 0 0 0
67 1 15.848748511869012 2.736324657906084 13.373346933029826 -1 0 0
148 1 16.683855762632657 0.02647731817680382 13.066112039929715 -1 0 -1
242 1 2.5268941625945036 4.944979665771535 13.486629627559894 0 0 0
402 1 1.2870415554046117 7.645422502264722 10.435666944051004 0 -1 1
128 1 2.039180541584819 5.212554589483648 11.070933372184278 0 0 0
66 1 3.2823526004453676 7.188118821073949 12.072845575205799 1 0 0
495 1 0.3341516011245479 7.017558606005512 13.073003133307976 1 1 1
19 1 3.559838513558666 6.530185705976284 9.895231753688865 1 0 0
392 1 5.736959279866284 7.916715908780539 13.043568942501544 0 1 0
109 1 5.799323457697748 6.437359476790823 10.974263283057685 0 0 -1
110 1 5.046098860619422 8.774808314928281 10.819547544470076 0 -1 0
156 1 8.569713414235386 6.291734404122935 10.438245774588255 0 0 0
315 1 7.516927599857435 5.813334749928383 12.92375999602232 0 0 0
458 1 10.065838638414178 4.48913951454792 10.482425773635615 0 0 0
366 1 8.027274355169878 8.371773641672574 12.753486953248672 1 0 0
442 1 9.763142992245465 6.436110237768436 12.355801066117534 -1 0 0
155 1 7.500110766909042 8.529317317508834 9.951686354323686 0 0 0
15 1 9.993985127301043 8.525341859253244 9.977722889666653 0 0 -1
70 1 12.488842968016598 8.35288423156254 9.294999507550035 0 0 0
151 1 11.974740162875802 4.702819520887243 12.03646406332878 0 0 0
491 1 14.477970958622524 4.839239765688247 11.5502884332489 0 1 0
284 1 11.089418729374401 6.414749561638636 9.477008333531153 -1 0 0
362 1 11.970619780138106 7.453923236083476 13.109616675990551 0 0 0
380 1 13.632130692886387 5.898281287024174 13.487517692241385 0 0 0
261 1 12.891034266539695 6.707054694952013 10.949650091781661 -1 0 0
411 1 14.329894608053591 7.831563444154723 12.210995306854853 -1 0 0
473 1 18.402032605625127 5.6494644309854065 10.840642321869451 0 0 0
98 1 17.16522139868807 7.753020742577402 11.793936654577893 0 0 0
423 1 14.979939039095525 8.53298126006103 10.127154939802002 -1 -1 0
359 1 15.906136514792351 6.286967517169636 10.776999821447216 0 0 0
471 1 15.932165690842321 5.615998098777449 13.683010935361752 0 0 0
26 1 17.419182924505737 7.338530522491874 9.21606769320197 -1 0 0
376 1 0.811016956877979 2.5284785052163725 14.435275686848675 1 1 -1
344 1 2.957474234737304 3.198347469746103 15.274945248970251 0 0 0
127 1 1.8054290968249873 0.7604130852433686 16.253914413021676 0 0 0
475 1 2.0285666070874426 2.1959758115121346 18.08423568145341 0 1 0
232 1 1.0039680062056973 3.638432797807077 16.622094615600275 0 0 -1
56 1 4.592302445973003 4.256709283562745 17.581350568797685 1 0 -1
31 1 6.425787701228112 0.15741643050225418 16.867999027021064 0 0 -2
108 1 5.66335929264612 1.5094701904768655 14.931976328597823 0 0 -1
340 1 5.111747620346243 4.040146767509168 15.386706922620279 1 0 0
342 1 4.233355049837271 1.7542219976574933 16.85786871790579 0 0 0
271 1 7.218256640806938 2.7778318582686126 16.617486302482465 0 1 0
427 1 7.932638815793771 2.682639860552309 14.236860390899864 0 1 0
150 1 8.584317374773063 1.0532824131291914 17.449564170616817 0 0 -1
350 1 7.828313176132726 -0.06540329565738207 14.714398645011222 0 1 0
139 1 10.318990585496127 0.6229904184966423 15.197188851734076 0 0 0
229 1 9.618127829751334 3.4768850755977208 16.170740554428658 0 0 -1
386 1 13.144560434346621 2.626444787469781 17.87626285320661 -1 0 0
219 1 11.091971580340893 1.9584884872803983 17.66865967653069 0 0 -1
41 1 12.173454783990943 2.5175464323453545 15.538520759350016 0 0 -1
281 1 13.27635790273559 0.6302194724282415 16.334091936164967 -1 1 -1
162 1 14.20322042337135 0.9667460806278276 13.831151961062591 -1 1 -1
182 1 17.344062359185997 3.621271130173853 16.107645394734572 -1 1 -1
417 1 15.62762742139936 -0.15116007909191678 15.66765616962497 0 0 0
304 1 15.005580826070572 2.1944298383636633 15.790379119508735 -1 -1 0
450 1 15.431623621686818 3.5531097944694356 17.980335092029627 0 0 0
99 1 17.478277402808494 1.3319799182250174 14.873579417982139 0 1 -1
396 1 16.700742621620552 1.6397272686343927 17.44620862944918 0 1 -1
328 1 2.485168224853153 7.869966661310798 14.20223441950151 0 0 0
347 1 0.11705575404457613 6.133857551698252 17.63694190977574 1 0 0
421 1 -0.09420384545283056 7.933676501394231 15.959058008869476 0 0 0
181 1 0.23694564333857382 5.691446995746338 15.139073768384248 -1 1 -1
251 1 2.373017647634251 7.721268020185988 16.657254693328575 0 1 0
47 1 3.04265953499871 5.574584695251613 15.827175052202072 0 0 -1
111 1 4.867070451888036 7.860854119021566 15.273730254353492 0 1 0
68 1 7.100565849076339 7.54431124385609 14.923911398744737 0 0 -1
329 1 5.966486465226207 5.878798907237681 16.424372615355832 0 1 0
253 1 4.044809627908902 6.845955114881405 17.892714215439874 0 0 -1
348 1 4.858046529094343 5.684007501737372 13.757593481199537 0 0 -1
459 1 9.52011401857111 7.474429354088036 14.526385381965072 0 0 0
147 1 10.067913213473778 8.613152413445246 16.26818471650063 0 1 -1
249 1 8.109914150604972 5.266973975534626 17.597308328603102 0 0 0
53 1 7.873907726565303 5.369674925510677 15.096636269812075 0 0 -1
192 1 7.6082901451017015 8.106716361478924 17.327524377177166 0 1 0
365 1 10.804495613722608 4.601507853986748 14.317627349613035 0 0 0
401 1 10.026360428742612 5.953648791345721 16.32664856415684 -1 -1 0
220 1 12.123227505908286 7.135060407433446 15.35637298020732 0 0 0
306 1 14.520910573942077 7.686006833651044 15.15859861958024 -1 -1 0
64 1 12.550919372385117 4.8321743652548586 16.477197403236957 -1 0 -1
460 1 11.070822638914164 4.530977125514644 18.20663501687164 0 0 0
341 1 14.936233796743831 4.535072978376409 15.622387165042083 -1 0 -1
45 1 16.798240817110962 6.097404331169108 16.062972914611745 0 0 0
118 1 14.687281549790512 6.715307757912231 17.56540150895101 0 0 -1
241 1 16.896766363779548 7.9039699188831065 13.958158506530438 -1 0 0
400 1 16.450206213665364 8.566651030116894 16.281398245571864 0 0 0
363 1 17.180656598364937 7.767038559052354 18.331900859226714 -1 0 0
292 1 1.2797773397060075 13.39679474380984 1.9795757524976034 0 0 0
446 1 1.4259096130402649 11.749764062602104 -0.040805731934267064 0 0 1
461 1 3.0029493779886556 11.756272336893181 2.803224010984838 0 0 1
485 1 2.8495177688507334 9.666782548748875 1.1171580674725794 0 0 1
2 1 0.802405470317 10.591645361709194 2.078575941415446 0 0 0
368 1 0.35496863182461613 12.223324910096816 3.936980643267713 0 0 0
138 1 1.9532164285971887 10.071711633144693 4.21491666143678 1 0 0
349 1 -0.2569534155172958 9.340586148952392 4.100773832852413 0 0 1
444 1 5.077886484032275 10.963316201752338 1.8047184023913316 0 0 1
78 1 3.504398310856033 13.304670371522217 0.7985600301440703 1 0 0
132 1 6.9757675523683105 12.14191593669377 2.9037168763339944 0 0 0
247 1 5.350812745945439 13.65983856704463 2.4534756509823716 0 0 1
422 1 7.047271946031425 10.309734305084191 0.8431570776022979 0 0 1
5 1 6.224807120117549 12.88840132213024 0.47622889821057846 0 -1 0
196 1 6.781302380399468 9.319222462076208 3.4585569468253556 0 0 0
72 1 4.122507581947395 9.528764388087676 3.513510818766748 0 1 0
275 1 3.9260346151355163 11.325168128497427 -0.3143885465084324 1 0 1
443 1 8.44280348196614 12.434343383510063 0.964675650019081 0 0 1
165 1 8.70125792665994 10.597461946069966 3.5300867881436693 0 0 0
270 1 9.76555193680796 10.065331859576597 1.337133027866587 0 0 1
183 1 10.497002704379593 12.352150320592298 2.9981580155050858 0 1 0
8 1 11.384343182213664 11.897357701265964 0.8545646638117301 0 -1 0
217 1 11.591734047751892 10.288535325326814 2.7310305224050415 0 -1 0
321 1 12.966214564123598 10.072359751587458 0.7898374544189366 -1 -1 1
333 1 13.985525620207564 12.446337434426539 1.144187030617607 0 -1 0
58 1 13.99310273453591 9.594580996476468 3.0107732339996325 0 0 0
390 1 13.303367310030623 11.798610687658194 3.6451209276306713 -1 0 0
391 1 15.63107326089339 10.527713424490448 1.184361286258434 0 0 1
6 1 17.50638592098174 12.57336601157031 0.11461285314355196 0 -1 0
244 1 15.951999725150852 12.637087353629054 2.3347386309991616 -1 0 0
334 1 16.2386933501547 10.566704700620118 3.5680481575892946 0 -1 0
297 1 17.951999716212153 10.113132112863987 0.547014542182371 0 0 1
472 1 0.3377344528530225 15.79105711733763 2.2527515129001645 0 0 1
73 1 2.0966344503847423 17.16027191492578 1.7325139964583753 1 0 -1
466 1 -0.07398456377106483 16.941092269156993 -0.3081964876263872 0 -1 1
168 1 3.1873651827189313 15.290054064040953 2.599802494132129 0 0 0
489 1 2.1489173533801047 15.345035696826942 0.5181040431720723 0 0 1
317 1 1.6717833464979872 14.803843100672735 4.2792685424519075 1 -1 0
410 1 -0.25709695915505854 18.406549185478642 1.614646387212165 1 -1 1
137 1 7.118627001009567 15.113163040063563 0.7367249135797815 0 0 1
223 1 4.633286574372628 15.823982492139546 0.7441651128719147 0 0 1
441 1 4.697206724460143 17.76344131562917 2.3024474500956087 0 -1 1
346 1 6.028631886884269 15.816230895435552 3.333255336127914 0 0 1
131 1 6.349366144454652 18.143518451367164 0.6363441571342296 0 -1 0
142 1 8.313271227525275 14.205808380987902 2.769409160957562 0 0 0
18 1 7.407992511144245 17.755603201702794 2.776238101251764 1 -1 0
97 1 8.959033983893072 16.46073217225189 1.5132236939951247 0 0 0
453 1 10.234667163804817 14.253983848795318 1.2412857366159098 0 0 0
115 1 10.570533260390489 15.89025333920847 3.5782452226856463 0 -1 0
395 1 10.758922744039433 18.218519332079346 2.754457246770831 0 0 0
258 1 12.28933640591599 14.054962894465069 2.430663777890547 0 -1 0
63 1 13.059559431683272 16.422993896275255 2.858225686680715 -1 0 0
225 1 11.754120245749563 16.411045472566396 1.0327972844062 -1 -1 0
483 1 14.537727799153087 17.969074840441298 4.228882051971085 -1 0 1
484 1 14.419663392480617 14.622387155727885 3.688108953273672 -1 0 0
305 1 17.137287400889722 18.178556622253655 4.273459700053233 -1 -1 0
467 1 16.223432182972413 16.07042945350641 -0.27096754231525616 0 0 1
360 1 17.276101283725747 14.670509399827074 1.0975287576951736 0 0 1
448 1 14.870372783349644 15.015648025394759 1.5121888587660404 -1 -1 1
290 1 16.78347588472995 16.713561823807915 2.4205323550127105 0 0 0
314 1 14.700371342897125 17.92184615573839 1.4039771388046447 0 -1 1
82 1 17.989024187044922 14.186781365998932 3.6207749146525563 0 0 0
173 1 2.6247735599266298 9.275390425338102 6.613830319482933 1 0 -1
414 1 0.5161500787907539 10.434546626563595 6.374263475353686 1 -1 0
440 1 3.1626101720566675 11.441379274369556 5.764443170273945 1 -1 0
418 1 1.503299755473045 12.865574119204615 6.291028578082706 1 -1 1
52 1 1.7669539601533755 11.659318068972023 8.34769081794007 0 0 0
369 1 5.261317538617947 11.653316378818094 4.392120737853179 1 0 1
288 1 4.690273324858154 10.700638703561033 8.066142829238725 0 1 0
487 1 3.494600634186711 13.311689266805791 7.821759850446098 0 0 1
257 1 4.935893701530149 9.706779638910847 6.034902878390234 0 0 0
176 1 5.620658375856069 12.399857228188072 6.663956788360841 0 0 0
387 1 7.007358215010862 9.225242444520022 7.990047906860285 -1 0 0
175 1 10.495111046640801 9.334996755798736 5.40243760849251 0 0 0
468 1 7.310026259750811 10.695622637389627 5.6498631354216755 1 0 1
83 1 7.320207463465602 11.777662000794738 8.322261157105098 0 1 0
250 1 8.160245670127896 13.34358995948097 6.570334815201012 0 -1 0
256 1 9.561955209489568 12.940673026578215 8.75884109511301 0 -1 0
286 1 9.26767652148155 10.624851492622724 7.088902524903086 0 0 0
213 1 12.909351932457023 9.736090638223727 5.027438075052524 0 -1 0
245 1 10.93526723229146 11.463179777648177 5.2353436802210656 -1 0 0
198 1 12.567360836076787 10.526217046907 7.120142537027323 0 0 0
385 1 10.972556880895599 13.219131159077838 7.075570846040442 0 0 0
282 1 13.574974653420854 12.698583200152708 6.17817777671559 -1 0 1
382 1 12.530455212929311 12.702547215747874 8.896115787292375 -1 0 0
481 1 15.417736322626928 12.150190359716941 7.809169848589303 -1 0 0
343 1 17.376480785676407 9.078091011647842 6.14893498483143 -1 0 0
339 1 17.27357182177295 11.594925347743766 5.6167870289643105 0 -1 1
170 1 16.145575831022867 9.586123711222665 8.242239346429958 -1 0 0
112 1 15.457151073357275 12.884790365464909 4.896431855554491 0 0 0
265 1 14.854390811977876 10.499145138948938 6.294241065778032 -1 0 0
277 1 17.999403036263647 11.356772271810947 8.196259576771409 0 0 0
330 1 1.9551656637724282 17.7421842162411 6.890137535061279 0 -1 0
405 1 2.8256765079893493 17.00481259590007 4.47736930585442 0 -1 1
214 1 1.2083200276140116 15.387157327949854 6.566945693776342 1 -1 0
234 1 0.04593101123381044 16.447837309788373 4.916301423314783 1 -1 0
248 1 0.5759040947588775 13.92743515847396 8.29448413324461 0 0 0
289 1 6.63313054915511 14.003958790013993 5.035607632344027 0 0 0
54 1 5.707472480885993 16.189919780774574 5.547108419415409 0 -1 -1
74 1 7.05634312131093 16.994866239920388 8.863010456941582 0 0 -1
87 1 4.1796604964614374 14.192808733543663 4.819196957197822 0 0 0
194 1 3.6441894136921817 15.649266116464723 6.807891645465709 0 0 -1
408 1 6.095733843664154 14.754177744994983 7.343668413065838 0 -1 0
358 1 5.3681689900698055 17.731660995144345 7.336195534352403 0 0 0
116 1 5.577973679565169 18.317134436145775 4.378416764123575 0 -1 0
17 1 3.4340619817520985 17.448539197757544 8.853375478676783 1 -1 -1
200 1 7.823400203531278 14.310325757676855 8.994066159288309 1 0 0
16 1 9.551045329364824 14.243073486891715 5.027811260633121 0 -1 0
121 1 10.008200231084482 17.771840059847808 5.074429028058778 -1 -1 0
322 1 8.21897861682895 16.177450537931783 4.440356971212892 -1 -1 0
21 1 7.513388823643475 18.060586941295895 5.755613264734648 -1 -1 0
102 1 8.10394418547196 15.800837142256036 6.803119443281858 0 -1 0
166 1 10.667409516458797 15.751933043514775 6.450201168682944 0 0 0
204 1 9.528874507322818 17.758328635075614 7.4270643425843765 0 -1 0
77 1 12.40571183755764 14.32230105762181 4.897078994259223 0 0 -1
28 1 13.31599546389061 18.226759129162684 7.360208239695188 0 0 0
300 1 14.211755117839207 16.343559946604334 5.9078499477565405 0 0 -1
397 1 12.417408713771069 17.28104670291745 5.1024518621005654 0 0 0
331 1 13.20463292993102 14.919237380364969 7.405963757574705 0 -1 0
55 1 11.578028828337102 17.11769056770196 8.401720670517951 0 -1 0
419 1 16.9960220971865 16.187287781135378 7.474164080153495 -1 -1 0
439 1 15.391674512538737 14.415060334928482 6.726273632337162 0 -1 0
500 1 16.566347363045963 15.624014061488955 4.8982768206779825 0 -1 0
415 1 15.213328474695063 16.274596756910622 8.868189247096689 0 -1 0
238 1 17.697385605692613 13.859347836509956 6.378494482988479 0 -1 0
273 1 18.399109089487798 18.24647091207958 6.6063465062889195 0 -1 0
40 1 15.869030290147215 18.232488939562227 6.980309468031471 -1 -1 0
353 1 16.806956652039958 14.087202745413826 8.619921736918194 0 -1 0
266 1 1.1220667657925318 11.217386935719073 10.750440932716973 0 0 0
499 1 2.5387324280535934 13.202351887328785 10.142646061065847 1 1 0
332 1 3.033397129085798 12.022426543820547 12.35245856531869 1 0 0
38 1 2.4018080101242596 9.33686680150882 11.8176479832424 1 0 -1
9 1 0.00964687758220345 9.42162057474838 12.598582376999834 0 0 -1
153 1 2.4189659448875256 9.476289070176787 9.452899223403787 0 0 0
357 1 3.798003379560135 11.144451492437161 10.282672254233493 1 0 1
457 1 4.940896790551587 10.611068320948414 12.330011120832468 0 0 0
267 1 5.217400977390129 13.100189758570856 11.686585326333313 0 0 0
262 1 5.413238090127738 12.982780585350108 9.303634242392947 0 0 0
172 1 6.399756099810135 10.916592495193537 10.467833827906443 0 1 -1
178 1 7.5095146021813655 10.906869863826264 12.67107695209114 1 0 0
479 1 9.459017818809512 12.298547294561217 12.97204613622908 0 0 0
497 1 7.469805093919619 12.92563907302612 10.837046617892879 0 0 0
23 1 10.24694871943644 9.366815816481061 12.056604624696963 -1 0 0
57 1 10.76885302556266 11.969592418881309 10.90367021980368 0 0 -1
100 1 7.285377418279397 13.578310505650245 13.005902219370697 1 0 -1
211 1 8.753731454854853 11.101619978390229 10.356531910102436 -1 -1 0
354 1 13.766199766340318 12.516978129726624 11.287177270865312 0 0 0
384 1 14.363457752718423 12.09690849567578 13.476774194774409 -1 0 0
496 1 13.505851560333678 9.784819412121706 13.511006632475459 0 0 0
302 1 11.900867026846441 12.186415447312374 12.813195134601719 0 -1 0
191 1 12.45876026066244 9.255070558781707 11.488586296192729 0 1 0
409 1 13.644911803156312 10.702302253182681 9.778840835144523 0 -1 0
239 1 11.168094093989367 10.651315723876163 9.115867252740788 1 0 0
144 1 17.751362199944918 11.518033185597933 12.232671841657401 -1 0 0
372 1 15.814875769087966 13.135632652428635 11.977314464276674 0 -1 0
279 1 17.952773479726723 9.77131738938431 10.106838909362665 0 0 0
355 1 15.946197519756634 10.060395125138953 12.240813064513157 -1 0 0
465 1 16.145590402863263 11.211967826209296 9.909312847740749 -1 0 0
130 1 18.003259386159367 13.617345563542722 13.461275035477463 0 -1 -1
210 1 17.77651149881919 12.87462493403413 10.34296597029157 -1 -1 0
218 1 0.6448206381580721 14.341447899628964 11.308773372353373 1 0 0
113 1 1.8904256307644198 17.291332698579733 11.394172557585248 0 -1 -1
7 1 0.37919592110545053 15.924158753436508 12.956680122842211 0 -1 -1
117 1 2.575270791023816 15.109923265596477 13.489350188666146 1 -1 0
207 1 0.9823662810767779 17.47341605644375 9.13980211037096 0 -1 -1
476 1 1.9140228549962077 15.485331727491095 9.35863235436163 1 0 0
179 1 4.083147804646612 17.021178788630433 12.56033913576464 0 0 -1
312 1 3.581564125292816 15.090522122677081 11.52299225954262 0 -1 0
370 1 6.224029319845564 15.531249704566523 11.48745988278847 0 0 0
10 1 6.528266597899994 17.75477290292797 12.866666438569313 0 -1 -1
48 1 5.603924940271659 17.7711349205698 10.534090474061152 -1 0 0
394 1 5.0904334522507 15.525936171293303 9.437730006654643 1 0 0
136 1 5.079184060420086 14.656769203888096 13.678098258082386 1 0 0
59 1 9.498236923058146 16.103052279960405 9.178379935627078 0 0 -1
426 1 9.68559311843104 14.594645958956626 11.08656792046623 0 0 1
158 1 8.280928750006092 16.297944371205745 11.406008375886731 1 0 0
431 1 10.215976942864922 14.848547522481926 13.358484386742537 0 0 0
276 1 10.63402723805534 17.27333959389142 11.23086669664613 0 0 -1
452 1 10.17302995933941 17.167604237642365 13.61501482968017 0 -1 0
377 1 12.977182694490525 16.45923809588925 10.21246468573266 0 0 0
157 1 11.997537626577357 14.300517210887179 11.462434257169507 0 -1 0
119 1 14.397300692290036 15.275465477669517 11.885767795595896 0 -1 0
432 1 12.545964762935435 16.38411203977842 12.79115313385615 0 -1 0
308 1 11.20665958620809 14.614869503336903 9.370330161423595 0 -1 0
169 1 18.103869090441002 16.089988179283466 10.013319346087115 -1 0 0
406 1 18.191609008052723 18.09592237050186 11.544664109038381 -1 -1 0
85 1 14.685183316515166 13.824518645924506 9.648434343912301 0 0 -1
263 1 16.87105525883056 15.43677644345047 11.978309182430408 -1 0 0
373 1 15.696497456895731 17.316826958362487 11.165758621795133 0 -1 0
246 1 17.476668790720062 18.14780430911109 9.151999375298647 -1 -1 0
90 1 1.0159506151469677 11.962949880169802 13.851784677405881 0 0 -1
389 1 3.3600224790234168 10.433437217591068 14.227823519120005 0 0 0