ITEM: TIMESTEP
0
ITEM: NUMBER OF ATOMS
1024
ITEM: BOX BOUNDS
0.000000 26.160000
0.000000 26.160000
0.000000 26.160000
ITEM: ATOMS id type x y z
1 1 0.000000 0.000000 0.000000
2 2 1.635000 1.635000 1.635000
3 1 0.000000 0.000000 3.270000
4 2 1.635000 1.635000 4.905000
5 1 0.000000 0.000000 6.540000
6 2 1.635000 1.635000 8.175000
7 1 0.000000 0.000000 9.810000
8 2 1.635000 1.635000 11.445000
9 1 0.000000 0.000000 13.080000
10 2 1.635000 1.635000 14.715000
11 1 0.000000 0.000000 16.350000
12 2 1.635000 1.635000 17.985000
13 1 0.000000 0.000000 19.620000
14 2 1.635000 1.635000 21.255000
15 1 0.000000 0.000000 22.890000
16 2 1.635000 1.635000 24.525000
17 1 0.000000 3.270000 0.000000
18 2 1.635000 4.905000 1.635000
19 1 0.000000 3.270000 3.270000
20 2 1.635000 4.905000 4.905000
21 1 0.000000 3.270000 6.540000
22 2 1.635000 4.905000 8.175000
23 1 0.000000 3.270000 9.810000
24 2 1.635000 4.905000 11.445000
25 1 0.000000 3.270000 13.080000
26 2 1.635000 4.905000 14.715000
27 1 0.000000 3.270000 16.350000
28 2 1.635000 4.905000 17.985000
29 1 0.000000 3.270000 19.620000
30 2 1.635000 4.905000 21.255000
31 1 0.000000 3.270000 22.890000
32 2 1.635000 4.905000 24.525000
33 1 0.000000 6.540000 0.000000
34 2 1.635000 8.175000 1.635000
35 1 0.000000 6.540000 3.270000
36 2 1.635000 8.175000 4.905000
37 1 0.000000 6.540000 6.540000
38 2 1.635000 8.175000 8.175000
39 1 0.000000 6.540000 9.810000
40 2 1.635000 8.175000 11.445000
41 1 0.000000 6.540000 13.080000
42 2 1.635000 8.175000 14.715000
43 1 0.000000 6.540000 16.350000
44 2 1.635000 8.175000 17.985000
45 1 0.000000 6.540000 19.620000
46 2 1.635000 8.175000 21.255000
47 1 0.000000 6.540000 22.890000
48 2 1.635000 8.175000 24.525000
49 1 0.000000 9.810000 0.000000
50 2 1.635000 11.445000 1.635000
51 1 0.000000 9.810000 3.270000
52 2 1.635000 11.445000 4.905000
53 1 0.000000 9.810000 6.540000
54 2 1.635000 11.445000 8.175000
55 1 0.000000 9.810000 9.810000
56 2 1.635000 11.445000 11.445000
57 1 0.000000 9.810000 13.080000
58 2 1.635000 11.445000 14.715000
59 1 0.000000 9.810000 16.350000
60 2 1.635000 11.445000 17.985000
61 1 0.000000 9.810000 19.620000
62 2 1.635000 11.445000 21.255000
63 1 0.000000 9.810000 22.890000
64 2 1.635000 11.445000 24.525000
65 1 0.000000 13.080000 0.000000
66 2 1.635000 14.715000 1.635000
67 1 0.000000 13.080000 3.270000
68 2 1.635000 14.715000 4.905000
69 1 0.000000 13.080000 6.540000
70 2 1.635000 14.715000 8.175000
71 1 0.000000 13.080000 9.810000
72 2 1.635000 14.715000 11.445000
73 1 0.000000 13.080000 13.080000
74 2 1.635000 14.715000 14.715000
75 1 0.000000 13.080000 16.350000
76 2 1.635000 14.715000 17.985000
77 1 0.000000 13.080000 19.620000
78 2 1.635000 14.715000 21.255000
79 1 0.000000 13.080000 22.890000
80 2 1.635000 14.715000 24.525000
81 1 0.000000 16.350000 0.000000
82 2 1.635000 17.985000 1.635000
83 1 0.000000 16.350000 3.270000
84 2 1.635000 17.985000 4.905000
85 1 0.000000 16.350000 6.540000
86 2 1.635000 17.985000 8.175000
87 1 0.000000 16.350000 9.810000
88 2 1.635000 17.985000 11.445000
89 1 0.000000 16.350000 13.080000
90 2 1.635000 17.985000 14.715000
91 1 0.000000 16.350000 16.350000
92 2 1.635000 17.985000 17.985000
93 1 0.000000 16.350000 19.620000
94 2 1.635000 17.985000 21.255000
95 1 0.000000 16.350000 22.890000
96 2 1.635000 17.985000 24.525000
97 1 0.000000 19.620000 0.000000
98 2 1.635000 21.255000 1.635000
99 1 0.000000 19.620000 3.270000
100 2 1.635000 21.255000 4.905000
101 1 0.000000 19.620000 6.540000
102 2 1.635000 21.255000 8.175000
103 1 0.000000 19.620000 9.810000
104 2 1.635000 21.255000 11.445000
105 1 0.000000 19.620000 13.080000
106 2 1.635000 21.255000 14.715000
107 1 0.000000 19.620000 16.350000
108 2 1.635000 21.255000 17.985000
109 1 0.000000 19.620000 19.620000
110 2 1.635000 21.255000 21.255000
111 1 0.000000 19.620000 22.890000
112 2 1.635000 21.255000 24.525000
113 1 0.000000 22.890000 0.000000
114 2 1.635000 24.525000 1.635000
115 1 0.000000 22.890000 3.270000
116 2 1.635000 24.525000 4.905000
117 1 0.000000 22.890000 6.540000
118 2 1.635000 24.525000 8.175000
119 1 0.000000 22.890000 9.810000
120 2 1.635000 24.525000 11.445000
121 1 0.000000 22.890000 13.080000
122 2 1.635000 24.525000 14.715000
123 1 0.000000 22.890000 16.350000
124 2 1.635000 24.525000 17.985000
125 1 0.000000 22.890000 19.620000
126 2 1.635000 24.525000 21.255000
127 1 0.000000 22.890000 22.890000
128 2 1.635000 24.525000 24.525000
129 1 3.270000 0.000000 0.000000
130 2 4.905000 1.635000 1.635000
131 1 3.270000 0.000000 3.270000
132 2 4.905000 1.635000 4.905000
133 1 3.270000 0.000000 6.540000
134 2 4.905000 1.635000 8.175000
135 1 3.270000 0.000000 9.810000
136 2 4.905000 1.635000 11.445000
137 1 3.270000 0.000000 13.080000
138 2 4.905000 1.635000 14.715000
139 1 3.270000 0.000000 16.350000
140 2 4.905000 1.635000 17.985000
141 1 3.270000 0.000000 19.620000
142 2 4.905000 1.635000 21.255000
143 1 3.270000 0.000000 22.890000
144 2 4.905000 1.635000 24.525000
145 1 3.270000 3.270000 0.000000
146 2 4.905000 4.905000 1.635000
147 1 3.270000 3.270000 3.270000
148 2 4.905000 4.905000 4.905000
149 1 3.270000 3.270000 6.540000
150 2 4.905000 4.905000 8.175000
151 1 3.270000 3.270000 9.810000
152 2 4.905000 4.905000 11.445000
153 1 3.270000 3.270000 13.080000
154 2 4.905000 4.905000 14.715000
155 1 3.270000 3.270000 16.350000
156 2 4.905000 4.905000 17.985000
157 1 3.270000 3.270000 19.620000
158 2 4.905000 4.905000 21.255000
159 1 3.270000 3.270000 22.890000
160 2 4.905000 4.905000 24.525000
161 1 3.270000 6.540000 0.000000
162 2 4.905000 8.175000 1.635000
163 1 3.270000 6.540000 3.270000
164 2 4.905000 8.175000 4.905000
165 1 3.270000 6.540000 6.540000
166 2 4.905000 8.175000 8.175000
167 1 3.270000 6.540000 9.810000
168 2 4.905000 8.175000 11.445000
169 1 3.270000 6.540000 13.080000
170 2 4.905000 8.175000 14.715000
171 1 3.270000 6.540000 16.350000
172 2 4.905000 8.175000 17.985000
173 1 3.270000 6.540000 19.620000
174 2 4.905000 8.175000 21.255000
175 1 3.270000 6.540000 22.890000
176 2 4.905000 8.175000 24.525000
177 1 3.270000 9.810000 0.000000
178 2 4.905000 11.445000 1.635000
179 1 3.270000 9.810000 3.270000
180 2 4.905000 11.445000 4.905000
181 1 3.270000 9.810000 6.540000
182 2 4.905000 11.445000 8.175000
183 1 3.270000 9.810000 9.810000
184 2 4.905000 11.445000 11.445000
185 1 3.270000 9.810000 13.080000
186 2 4.905000 11.445000 14.715000
187 1 3.270000 9.810000 16.350000
188 2 4.905000 11.445000 17.985000
189 1 3.270000 9.810000 19.620000
190 2 4.905000 11.445000 21.255000
191 1 3.270000 9.810000 22.890000
192 2 4.905000 11.445000 24.525000
193 1 3.270000 13.080000 0.000000
194 2 4.905000 14.715000 1.635000
195 1 3.270000 13.080000 3.270000
196 2 4.905000 14.715000 4.905000
197 1 3.270000 13.080000 6.540000
198 2 4.905000 14.715000 8.175000
199 1 3.270000 13.080000 9.810000
200 2 4.905000 14.715000 11.445000
201 1 3.270000 13.080000 13.080000
202 2 4.905000 14.715000 14.715000
203 1 3.270000 13.080000 16.350000
204 2 4.905000 14.715000 17.985000
205 1 3.270000 13.080000 19.620000
206 2 4.905000 14.715000 21.255000
207 1 3.270000 13.080000 22.890000
208 2 4.905000 14.715000 24.525000
209 1 3.270000 16.350000 0.000000
210 2 4.905000 17.985000 1.635000
211 1 3.270000 16.350000 3.270000
212 2 4.905000 17.985000 4.905000
213 1 3.270000 16.350000 6.540000
214 2 4.905000 17.985000 8.175000
215 1 3.270000 16.350000 9.810000
216 2 4.905000 17.985000 11.445000
217 1 3.270000 16.350000 13.080000
218 2 4.905000 17.985000 14.715000
219 1 3.270000 16.350000 16.350000
220 2 4.905000 17.985000 17.985000
221 1 3.270000 16.350000 19.620000
222 2 4.905000 17.985000 21.255000
223 1 3.270000 16.350000 22.890000
224 2 4.905000 17.985000 24.525000
225 1 3.270000 19.620000 0.000000
226 2 4.905000 21.255000 1.635000
227 1 3.270000 19.620000 3.270000
228 2 4.905000 21.255000 4.905000
229 1 3.270000 19.620000 6.540000
230 2 4.905000 21.255000 8.175000
231 1 3.270000 19.620000 9.810000
232 2 4.905000 21.255000 11.445000
233 1 3.270000 19.620000 13.080000
234 2 4.905000 21.255000 14.715000
235 1 3.270000 19.620000 16.350000
236 2 4.905000 21.255000 17.985000
237 1 3.270000 19.620000 19.620000
238 2 4.905000 21.255000 21.255000
239 1 3.270000 19.620000 22.890000
240 2 4.905000 21.255000 24.525000
241 1 3.270000 22.890000 0.000000
242 2 4.905000 24.525000 1.635000
243 1 3.270000 22.890000 3.270000
244 2 4.905000 24.525000 4.905000
245 1 3.270000 22.890000 6.540000
246 2 4.905000 24.525000 8.175000
247 1 3.270000 22.890000 9.810000
248 2 4.905000 24.525000 11.445000
249 1 3.270000 22.890000 13.080000
250 2 4.905000 24.525000 14.715000
251 1 3.270000 22.890000 16.350000
252 2 4.905000 24.525000 17.985000
253 1 3.270000 22.890000 19.620000
254 2 4.905000 24.525000 21.255000
255 1 3.270000 22.890000 22.890000
256 2 4.905000 24.525000 24.525000
257 1 6.540000 0.000000 0.000000
258 2 8.175000 1.635000 1.635000
259 1 6.540000 0.000000 3.270000
260 2 8.175000 1.635000 4.905000
261 1 6.540000 0.000000 6.540000
262 2 8.175000 1.635000 8.175000
263 1 6.540000 0.000000 9.810000
264 2 8.175000 1.635000 11.445000
265 1 6.540000 0.000000 13.080000
266 2 8.175000 1.635000 14.715000
267 1 6.540000 0.000000 16.350000
268 2 8.175000 1.635000 17.985000
269 1 6.540000 0.000000 19.620000
270 2 8.175000 1.635000 21.255000
271 1 6.540000 0.000000 22.890000
272 2 8.175000 1.635000 24.525000
273 1 6.540000 3.270000 0.000000
274 2 8.175000 4.905000 1.635000
275 1 6.540000 3.270000 3.270000
276 2 8.175000 4.905000 4.905000
277 1 6.540000 3.270000 6.540000
278 2 8.175000 4.905000 8.175000
279 1 6.540000 3.270000 9.810000
280 2 8.175000 4.905000 11.445000
281 1 6.540000 3.270000 13.080000
282 2 8.175000 4.905000 14.715000
283 1 6.540000 3.270000 16.350000
284 2 8.175000 4.905000 17.985000
285 1 6.540000 3.270000 19.620000
286 2 8.175000 4.905000 21.255000
287 1 6.540000 3.270000 22.890000
288 2 8.175000 4.905000 24.525000
289 1 6.540000 6.540000 0.000000
290 2 8.175000 8.175000 1.635000
291 1 6.540000 6.540000 3.270000
292 2 8.175000 8.175000 4.905000
293 1 6.540000 6.540000 6.540000
294 2 8.175000 8.175000 8.175000
295 1 6.540000 6.540000 9.810000
296 2 8.175000 8.175000 11.445000
297 1 6.540000 6.540000 13.080000
298 2 8.175000 8.175000 14.715000
299 1 6.540000 6.540000 16.350000
300 2 8.175000 8.175000 17.985000
301 1 6.540000 6.540000 19.620000
302 2 8.175000 8.175000 21.255000
303 1 6.540000 6.540000 22.890000
304 2 8.175000 8.175000 24.525000
305 1 6.540000 9.810000 0.000000
306 2 8.175000 11.445000 1.635000
307 1 6.540000 9.810000 3.270000
308 2 8.175000 11.445000 4.905000
309 1 6.540000 9.810000 6.540000
310 2 8.175000 11.445000 8.175000
311 1 6.540000 9.810000 9.810000
312 2 8.175000 11.445000 11.445000
313 1 6.540000 9.810000 13.080000
314 2 8.175000 11.445000 14.715000
315 1 6.540000 9.810000 16.350000
316 2 8.175000 11.445000 17.985000
317 1 6.540000 9.810000 19.620000
318 2 8.175000 11.445000 21.255000
319 1 6.540000 9.810000 22.890000
320 2 8.175000 11.445000 24.525000
321 1 6.540000 13.080000 0.000000
322 2 8.175000 14.715000 1.635000
323 1 6.540000 13.080000 3.270000
324 2 8.175000 14.715000 4.905000
325 1 6.540000 13.080000 6.540000
326 2 8.175000 14.715000 8.175000
327 1 6.540000 13.080000 9.810000
328 2 8.175000 14.715000 11.445000
329 1 6.540000 13.080000 13.080000
330 2 8.175000 14.715000 14.715000
331 1 6.540000 13.080000 16.350000
332 2 8.175000 14.715000 17.985000
333 1 6.540000 13.080000 19.620000
334 2 8.175000 14.715000 21.255000
335 1 6.540000 13.080000 22.890000
336 2 8.175000 14.715000 24.525000
337 1 6.540000 16.350000 0.000000
338 2 8.175000 17.985000 1.635000
339 1 6.540000 16.350000 3.270000
340 2 8.175000 17.985000 4.905000
341 1 6.540000 16.350000 6.540000
342 2 8.175000 17.985000 8.175000
343 1 6.540000 16.350000 9.810000
344 2 8.175000 17.985000 11.445000
345 1 6.540000 16.350000 13.080000
346 2 8.175000 17.985000 14.715000
347 1 6.540000 16.350000 16.350000
348 2 8.175000 17.985000 17.985000
349 1 6.540000 16.350000 19.620000
350 2 8.175000 17.985000 21.255000
351 1 6.540000 16.350000 22.890000
352 2 8.175000 17.985000 24.525000
353 1 6.540000 19.620000 0.000000
354 2 8.175000 21.255000 1.635000
355 1 6.540000 19.620000 3.270000
356 2 8.175000 21.255000 4.905000
357 1 6.540000 19.620000 6.540000
358 2 8.175000 21.255000 8.175000
359 1 6.540000 19.620000 9.810000
360 2 8.175000 21.255000 11.445000
361 1 6.540000 19.620000 13.080000
362 2 8.175000 21.255000 14.715000
363 1 6.540000 19.620000 16.350000
364 2 8.175000 21.255000 17.985000
365 1 6.540000 19.620000 19.620000
366 2 8.175000 21.255000 21.255000
367 1 6.540000 19.620000 22.890000
368 2 8.175000 21.255000 24.525000
369 1 6.540000 22.890000 0.000000
370 2 8.175000 24.525000 1.635000
371 1 6.540000 22.890000 3.270000
372 2 8.175000 24.525000 4.905000
373 1 6.540000 22.890000 6.540000
374 2 8.175000 24.525000 8.175000
375 1 6.540000 22.890000 9.810000
376 2 8.175000 24.525000 11.445000
377 1 6.540000 22.890000 13.080000
378 2 8.175000 24.525000 14.715000
379 1 6.540000 22.890000 16.350000
380 2 8.175000 24.525000 17.985000
381 1 6.540000 22.890000 19.620000
382 2 8.175000 24.525000 21.255000
383 1 6.540000 22.890000 22.890000
384 2 8.175000 24.525000 24.525000
385 1 9.810000 0.000000 0.000000
386 2 11.445000 1.635000 1.635000
387 1 9.810000 0.000000 3.270000
388 2 11.445000 1.635000 4.905000
389 1 9.810000 0.000000 6.540000
390 2 11.445000 1.635000 8.175000
391 1 9.810000 0.000000 9.810000
392 2 11.445000 1.635000 11.445000
393 1 9.810000 0.000000 13.080000
394 2 11.445000 1.635000 14.715000
395 1 9.810000 0.000000 16.350000
396 2 11.445000 1.635000 17.985000
397 1 9.810000 0.000000 19.620000
398 2 11.445000 1.635000 21.255000
399 1 9.810000 0.000000 22.890000
400 2 11.445000 1.635000 24.525000
401 1 9.810000 3.270000 0.000000
402 2 11.445000 4.905000 1.635000
403 1 9.810000 3.270000 3.270000
404 2 11.445000 4.905000 4.905000
405 1 9.810000 3.270000 6.540000
406 2 11.445000 4.905000 8.175000
407 1 9.810000 3.270000 9.810000
408 2 11.445000 4.905000 11.445000
409 1 9.810000 3.270000 13.080000
410 2 11.445000 4.905000 14.715000
411 1 9.810000 3.270000 16.350000
412 2 11.445000 4.905000 17.985000
413 1 9.810000 3.270000 19.620000
414 2 11.445000 4.905000 21.255000
415 1 9.810000 3.270000 22.890000
416 2 11.445000 4.905000 24.525000
417 1 9.810000 6.540000 0.000000
418 2 11.445000 8.175000 1.635000
419 1 9.810000 6.540000 3.270000
420 2 11.445000 8.175000 4.905000
421 1 9.810000 6.540000 6.540000
422 2 11.445000 8.175000 8.175000
423 1 9.810000 6.540000 9.810000
424 2 11.445000 8.175000 11.445000
425 1 9.810000 6.540000 13.080000
426 2 11.445000 8.175000 14.715000
427 1 9.810000 6.540000 16.350000
428 2 11.445000 8.175000 17.985000
429 1 9.810000 6.540000 19.620000
430 2 11.445000 8.175000 21.255000
431 1 9.810000 6.540000 22.890000
432 2 11.445000 8.175000 24.525000
433 1 9.810000 9.810000 0.000000
434 2 11.445000 11.445000 1.635000
435 1 9.810000 9.810000 3.270000
436 2 11.445000 11.445000 4.905000
437 1 9.810000 9.810000 6.540000
438 2 11.445000 11.445000 8.175000
439 1 9.810000 9.810000 9.810000
440 2 11.445000 11.445000 11.445000
441 1 9.810000 9.810000 13.080000
442 2 11.445000 11.445000 14.715000
443 1 9.810000 9.810000 16.350000
444 2 11.445000 11.445000 17.985000
445 1 9.810000 9.810000 19.620000
446 2 11.445000 11.445000 21.255000
447 1 9.810000 9.810000 22.890000
448 2 11.445000 11.445000 24.525000
449 1 9.810000 13.080000 0.000000
450 2 11.445000 14.715000 1.635000
451 1 9.810000 13.080000 3.270000
452 2 11.445000 14.715000 4.905000
453 1 9.810000 13.080000 6.540000
454 2 11.445000 14.715000 8.175000
455 1 9.810000 13.080000 9.810000
456 2 11.445000 14.715000 11.445000
457 1 9.810000 13.080000 13.080000
458 2 11.445000 14.715000 14.715000
459 1 9.810000 13.080000 16.350000
460 2 11.445000 14.715000 17.985000
461 1 9.810000 13.080000 19.620000
462 2 11.445000 14.715000 21.255000
463 1 9.810000 13.080000 22.890000
464 2 11.445000 14.715000 24.525000
465 1 9.810000 16.350000 0.000000
466 2 11.445000 17.985000 1.635000
467 1 9.810000 16.350000 3.270000
468 2 11.445000 17.985000 4.905000
469 1 9.810000 16.350000 6.540000
470 2 11.445000 17.985000 8.175000
471 1 9.810000 16.350000 9.810000
472 2 11.445000 17.985000 11.445000
473 1 9.810000 16.350000 13.080000
474 2 11.445000 17.985000 14.715000
475 1 9.810000 16.350000 16.350000
476 2 11.445000 17.985000 17.985000
477 1 9.810000 16.350000 19.620000
478 2 11.445000 17.985000 21.255000
479 1 9.810000 16.350000 22.890000
480 2 11.445000 17.985000 24.525000
481 1 9.810000 19.620000 0.000000
482 2 11.445000 21.255000 1.635000
483 1 9.810000 19.620000 3.270000
484 2 11.445000 21.255000 4.905000
485 1 9.810000 19.620000 6.540000
486 2 11.445000 21.255000 8.175000
487 1 9.810000 19.620000 9.810000
488 2 11.445000 21.255000 11.445000
489 1 9.810000 19.620000 13.080000
490 2 11.445000 21.255000 14.715000
491 1 9.810000 19.620000 16.350000
492 2 11.445000 21.255000 17.985000
493 1 9.810000 19.620000 19.620000
494 2 11.445000 21.255000 21.255000
495 1 9.810000 19.620000 22.890000
496 2 11.445000 21.255000 24.525000
497 1 9.810000 22.890000 0.000000
498 2 11.445000 24.525000 1.635000
499 1 9.810000 22.890000 3.270000
500 2 11.445000 24.525000 4.905000
501 1 9.810000 22.890000 6.540000
502 2 11.445000 24.525000 8.175000
503 1 9.810000 22.890000 9.810000
504 2 11.445000 24.525000 11.445000
505 1 9.810000 22.890000 13.080000
506 2 11.445000 24.525000 14.715000
507 1 9.810000 22.890000 16.350000
508 2 11.445000 24.525000 17.985000
509 1 9.810000 22.890000 19.620000
510 2 11.445000 24.525000 21.255000
511 1 9.810000 22.890000 22.890000
512 2 11.445000 24.525000 24.525000
513 1 13.080000 0.000000 0.000000
514 2 14.715000 1.635000 1.635000
515 1 13.080000 0.000000 3.270000
516 2 14.715000 1.635000 4.905000
517 1 13.080000 0.000000 6.540000
518 2 14.715000 1.635000 8.175000
519 1 13.080000 0.000000 9.810000
520 2 14.715000 1.635000 11.445000
521 1 13.080000 0.000000 13.080000
522 2 14.715000 1.635000 14.715000
523 1 13.080000 0.000000 16.350000
524 2 14.715000 1.635000 17.985000
525 1 13.080000 0.000000 19.620000
526 2 14.715000 1.635000 21.255000
527 1 13.080000 0.000000 22.890000
528 2 14.715000 1.635000 24.525000
529 1 13.080000 3.270000 0.000000
530 2 14.715000 4.905000 1.635000
531 1 13.080000 3.270000 3.270000
532 2 14.715000 4.905000 4.905000
533 1 13.080000 3.270000 6.540000
534 2 14.715000 4.905000 8.175000
535 1 13.080000 3.270000 9.810000
536 2 14.715000 4.905000 11.445000
537 1 13.080000 3.270000 13.080000
538 2 14.715000 4.905000 14.715000
539 1 13.080000 3.270000 16.350000
540 2 14.715000 4.905000 17.985000
541 1 13.080000 3.270000 19.620000
542 2 14.715000 4.905000 21.255000
543 1 13.080000 3.270000 22.890000
544 2 14.715000 4.905000 24.525000
545 1 13.080000 6.540000 0.000000
546 2 14.715000 8.175000 1.635000
547 1 13.080000 6.540000 3.270000
548 2 14.715000 8.175000 4.905000
549 1 13.080000 6.540000 6.540000
550 2 14.715000 8.175000 8.175000
551 1 13.080000 6.540000 9.810000
552 2 14.715000 8.175000 11.445000
553 1 13.080000 6.540000 13.080000
554 2 14.715000 8.175000 14.715000
555 1 13.080000 6.540000 16.350000
556 2 14.715000 8.175000 17.985000
557 1 13.080000 6.540000 19.620000
558 2 14.715000 8.175000 21.255000
559 1 13.080000 6.540000 22.890000
560 2 14.715000 8.175000 24.525000
561 1 13.080000 9.810000 0.000000
562 2 14.715000 11.445000 1.635000
563 1 13.080000 9.810000 3.270000
564 2 14.715000 11.445000 4.905000
565 1 13.080000 9.810000 6.540000
566 2 14.715000 11.445000 8.175000
567 1 13.080000 9.810000 9.810000
568 2 14.715000 11.445000 11.445000
569 1 13.080000 9.810000 13.080000
570 2 14.715000 11.445000 14.715000
571 1 13.080000 9.810000 16.350000
572 2 14.715000 11.445000 17.985000
573 1 13.080000 9.810000 19.620000
574 2 14.715000 11.445000 21.255000
575 1 13.080000 9.810000 22.890000
576 2 14.715000 11.445000 24.525000
577 1 13.080000 13.080000 0.000000
578 2 14.715000 14.715000 1.635000
579 1 13.080000 13.080000 3.270000
580 2 14.715000 14.715000 4.905000
581 1 13.080000 13.080000 6.540000
582 2 14.715000 14.715000 8.175000
583 1 13.080000 13.080000 9.810000
584 2 14.715000 14.715000 11.445000
585 1 13.080000 13.080000 13.080000
586 2 14.715000 14.715000 14.715000
587 1 13.080000 13.080000 16.350000
588 2 14.715000 14.715000 17.985000
589 1 13.080000 13.080000 19.620000
590 2 14.715000 14.715000 21.255000
591 1 13.080000 13.080000 22.890000
592 2 14.715000 14.715000 24.525000
593 1 13.080000 16.350000 0.000000
594 2 14.715000 17.985000 1.635000
595 1 13.080000 16.350000 3.270000
596 2 14.715000 17.985000 4.905000
597 1 13.080000 16.350000 6.540000
598 2 14.715000 17.985000 8.175000
599 1 13.080000 16.350000 9.810000
600 2 14.715000 17.985000 11.445000
601 1 13.080000 16.350000 13.080000
602 2 14.715000 17.985000 14.715000
603 1 13.080000 16.350000 16.350000
604 2 14.715000 17.985000 17.985000
605 1 13.080000 16.350000 19.620000
606 2 14.715000 17.985000 21.255000
607 1 13.080000 16.350000 22.890000
608 2 14.715000 17.985000 24.525000
609 1 13.080000 19.620000 0.000000
610 2 14.715000 21.255000 1.635000
611 1 13.080000 19.620000 3.270000
612 2 14.715000 21.255000 4.905000
613 1 13.080000 19.620000 6.540000
614 2 14.715000 21.255000 8.175000
615 1 13.080000 19.620000 9.810000
616 2 14.715000 21.255000 11.445000
617 1 13.080000 19.620000 13.080000
618 2 14.715000 21.255000 14.715000
619 1 13.080000 19.620000 16.350000
620 2 14.715000 21.255000 17.985000
621 1 13.080000 19.620000 19.620000
622 2 14.715000 21.255000 21.255000
623 1 13.080000 19.620000 22.890000
624 2 14.715000 21.255000 24.525000
625 1 13.080000 22.890000 0.000000
626 2 14.715000 24.525000 1.635000
627 1 13.080000 22.890000 3.270000
628 2 14.715000 24.525000 4.905000
629 1 13.080000 22.890000 6.540000
630 2 14.715000 24.525000 8.175000
631 1 13.080000 22.890000 9.810000
632 2 14.715000 24.525000 11.445000
633 1 13.080000 22.890000 13.080000
634 2 14.715000 24.525000 14.715000
635 1 13.080000 22.890000 16.350000
636 2 14.715000 24.525000 17.985000
637 1 13.080000 22.890000 19.620000
638 2 14.715000 24.525000 21.255000
639 1 13.080000 22.890000 22.890000
640 2 14.715000 24.525000 24.525000
641 1 16.350000 0.000000 0.000000
642 2 17.985000 1.635000 1.635000
643 1 16.350000 0.000000 3.270000
644 2 17.985000 1.635000 4.905000
645 1 16.350000 0.000000 6.540000
646 2 17.985000 1.635000 8.175000
647 1 16.350000 0.000000 9.810000
648 2 17.985000 1.635000 11.445000
649 1 16.350000 0.000000 13.080000
650 2 17.985000 1.635000 14.715000
651 1 16.350000 0.000000 16.350000
652 2 17.985000 1.635000 17.985000
653 1 16.350000 0.000000 19.620000
654 2 17.985000 1.635000 21.255000
655 1 16.350000 0.000000 22.890000
656 2 17.985000 1.635000 24.525000
657 1 16.350000 3.270000 0.000000
658 2 17.985000 4.905000 1.635000
659 1 16.350000 3.270000 3.270000
660 2 17.985000 4.905000 4.905000
661 1 16.350000 3.270000 6.540000
662 2 17.985000 4.905000 8.175000
663 1 16.350000 3.270000 9.810000
664 2 17.985000 4.905000 11.445000
665 1 16.350000 3.270000 13.080000
666 2 17.985000 4.905000 14.715000
667 1 16.350000 3.270000 16.350000
668 2 17.985000 4.905000 17.985000
669 1 16.350000 3.270000 19.620000
670 2 17.985000 4.905000 21.255000
671 1 16.350000 3.270000 22.890000
672 2 17.985000 4.905000 24.525000
673 1 16.350000 6.540000 0.000000
674 2 17.985000 8.175000 1.635000
675 1 16.350000 6.540000 3.270000
676 2 17.985000 8.175000 4.905000
677 1 16.350000 6.540000 6.540000
678 2 17.985000 8.175000 8.175000
679 1 16.350000 6.540000 9.810000
680 2 17.985000 8.175000 11.445000
681 1 16.350000 6.540000 13.080000
682 2 17.985000 8.175000 14.715000
683 1 16.350000 6.540000 16.350000
684 2 17.985000 8.175000 17.985000
685 1 16.350000 6.540000 19.620000
686 2 17.985000 8.175000 21.255000
687 1 16.350000 6.540000 22.890000
688 2 17.985000 8.175000 24.525000
689 1 16.350000 9.810000 0.000000
690 2 17.985000 11.445000 1.635000
691 1 16.350000 9.810000 3.270000
692 2 17.985000 11.445000 4.905000
693 1 16.350000 9.810000 6.540000
694 2 17.985000 11.445000 8.175000
695 1 16.350000 9.810000 9.810000
696 2 17.985000 11.445000 11.445000
697 1 16.350000 9.810000 13.080000
698 2 17.985000 11.445000 14.715000
699 1 16.350000 9.810000 16.350000
700 2 17.985000 11.445000 17.985000
701 1 16.350000 9.810000 19.620000
702 2 17.985000 11.445000 21.255000
703 1 16.350000 9.810000 22.890000
704 2 17.985000 11.445000 24.525000
705 1 16.350000 13.080000 0.000000
706 2 17.985000 14.715000 1.635000
707 1 16.350000 13.080000 3.270000
708 2 17.985000 14.715000 4.905000
709 1 16.350000 13.080000 6.540000
710 2 17.985000 14.715000 8.175000
711 1 16.350000 13.080000 9.810000
712 2 17.985000 14.715000 11.445000
713 1 16.350000 13.080000 13.080000
714 2 17.985000 14.715000 14.715000
715 1 16.350000 13.080000 16.350000
716 2 17.985000 14.715000 17.985000
717 1 16.350000 13.080000 19.620000
718 2 17.985000 14.715000 21.255000
719 1 16.350000 13.080000 22.890000
720 2 17.985000 14.715000 24.525000
721 1 16.350000 16.350000 0.000000
722 2 17.985000 17.985000 1.635000
723 1 16.350000 16.350000 3.270000
724 2 17.985000 17.985000 4.905000
725 1 16.350000 16.350000 6.540000
726 2 17.985000 17.985000 8.175000
727 1 16.350000 16.350000 9.810000
728 2 17.985000 17.985000 11.445000
729 1 16.350000 16.350000 13.080000
730 2 17.985000 17.985000 14.715000
731 1 16.350000 16.350000 16.350000
732 2 17.985000 17.985000 17.985000
733 1 16.350000 16.350000 19.620000
734 2 17.985000 17.985000 21.255000
735 1 16.350000 16.350000 22.890000
736 2 17.985000 17.985000 24.525000
737 1 16.350000 19.620000 0.000000
738 2 17.985000 21.255000 1.635000
739 1 16.350000 19.620000 3.270000
740 2 17.985000 21.255000 4.905000
741 1 16.350000 19.620000 6.540000
742 2 17.985000 21.255000 8.175000
743 1 16.350000 19.620000 9.810000
744 2 17.985000 21.255000 11.445000
745 1 16.350000 19.620000 13.080000
746 2 17.985000 21.255000 14.715000
747 1 16.350000 19.620000 16.350000
748 2 17.985000 21.255000 17.985000
749 1 16.350000 19.620000 19.620000
750 2 17.985000 21.255000 21.255000
751 1 16.350000 19.620000 22.890000
752 2 17.985000 21.255000 24.525000
753 1 16.350000 22.890000 0.000000
754 2 17.985000 24.525000 1.635000
755 1 16.350000 22.890000 3.270000
756 2 17.985000 24.525000 4.905000
757 1 16.350000 22.890000 6.540000
758 2 17.985000 24.525000 8.175000
759 1 16.350000 22.890000 9.810000
760 2 17.985000 24.525000 11.445000
761 1 16.350000 22.890000 13.080000
762 2 17.985000 24.525000 14.715000
763 1 16.350000 22.890000 16.350000
764 2 17.985000 24.525000 17.985000
765 1 16.350000 22.890000 19.620000
766 2 17.985000 24.525000 21.255000
767 1 16.350000 22.890000 22.890000
768 2 17.985000 24.525000 24.525000
769 1 19.620000 0.000000 0.000000
770 2 21.255000 1.635000 1.635000
771 1 19.620000 0.000000 3.270000
772 2 21.255000 1.635000 4.905000
773 1 19.620000 0.000000 6.540000
774 2 21.255000 1.635000 8.175000
775 1 19.620000 0.000000 9.810000
776 2 21.255000 1.635000 11.445000
777 1 19.620000 0.000000 13.080000
778 2 21.255000 1.635000 14.715000
779 1 19.620000 0.000000 16.350000
780 2 21.255000 1.635000 17.985000
781 1 19.620000 0.000000 19.620000
782 2 21.255000 1.635000 21.255000
783 1 19.620000 0.000000 22.890000
784 2 21.255000 1.635000 24.525000
785 1 19.620000 3.270000 0.000000
786 2 21.255000 4.905000 1.635000
787 1 19.620000 3.270000 3.270000
788 2 21.255000 4.905000 4.905000
789 1 19.620000 3.270000 6.540000
790 2 21.255000 4.905000 8.175000
791 1 19.620000 3.270000 9.810000
792 2 21.255000 4.905000 11.445000
793 1 19.620000 3.270000 13.080000
794 2 21.255000 4.905000 14.715000
795 1 19.620000 3.270000 16.350000
796 2 21.255000 4.905000 17.985000
797 1 19.620000 3.270000 19.620000
798 2 21.255000 4.905000 21.255000
799 1 19.620000 3.270000 22.890000
800 2 21.255000 4.905000 24.525000
801 1 19.620000 6.540000 0.000000
802 2 21.255000 8.175000 1.635000
803 1 19.620000 6.540000 3.270000
804 2 21.255000 8.175000 4.905000
805 1 19.620000 6.540000 6.540000
806 2 21.255000 8.175000 8.175000
807 1 19.620000 6.540000 9.810000
808 2 21.255000 8.175000 11.445000
809 1 19.620000 6.540000 13.080000
810 2 21.255000 8.175000 14.715000
811 1 19.620000 6.540000 16.350000
812 2 21.255000 8.175000 17.985000
813 1 19.620000 6.540000 19.620000
814 2 21.255000 8.175000 21.255000
815 1 19.620000 6.540000 22.890000
816 2 21.255000 8.175000 24.525000
817 1 19.620000 9.810000 0.000000
818 2 21.255000 11.445000 1.635000
819 1 19.620000 9.810000 3.270000
820 2 21.255000 11.445000 4.905000
821 1 19.620000 9.810000 6.540000
822 2 21.255000 11.445000 8.175000
823 1 19.620000 9.810000 9.810000
824 2 21.255000 11.445000 11.445000
825 1 19.620000 9.810000 13.080000
826 2 21.255000 11.445000 14.715000
827 1 19.620000 9.810000 16.350000
828 2 21.255000 11.445000 17.985000
829 1 19.620000 9.810000 19.620000
830 2 21.255000 11.445000 21.255000
831 1 19.620000 9.810000 22.890000
832 2 21.255000 11.445000 24.525000
833 1 19.620000 13.080000 0.000000
834 2 21.255000 14.715000 1.635000
835 1 19.620000 13.080000 3.270000
836 2 21.255000 14.715000 4.905000
837 1 19.620000 13.080000 6.540000
838 2 21.255000 14.715000 8.175000
839 1 19.620000 13.080000 9.810000
840 2 21.255000 14.715000 11.445000
841 1 19.620000 13.080000 13.080000
842 2 21.255000 14.715000 14.715000
843 1 19.620000 13.080000 16.350000
844 2 21.255000 14.715000 17.985000
845 1 19.620000 13.080000 19.620000
846 2 21.255000 14.715000 21.255000
847 1 19.620000 13.080000 22.890000
848 2 21.255000 14.715000 24.525000
849 1 19.620000 16.350000 0.000000
850 2 21.255000 17.985000 1.635000
851 1 19.620000 16.350000 3.270000
852 2 21.255000 17.985000 4.905000
853 1 19.620000 16.350000 6.540000
854 2 21.255000 17.985000 8.175000
855 1 19.620000 16.350000 9.810000
856 2 21.255000 17.985000 11.445000
857 1 19.620000 16.350000 13.080000
858 2 21.255000 17.985000 14.715000
859 1 19.620000 16.350000 16.350000
860 2 21.255000 17.985000 17.985000
861 1 19.620000 16.350000 19.620000
862 2 21.255000 17.985000 21.255000
863 1 19.620000 16.350000 22.890000
864 2 21.255000 17.985000 24.525000
865 1 19.620000 19.620000 0.000000
866 2 21.255000 21.255000 1.635000