ITEM: TIMESTEP
1000
ITEM: NUMBER OF ATOMS
500
ITEM: BOX BOUNDS pp pp pp
-8.5140266493057348e-01 1.8926402664930649e+01
-8.5140266493057348e-01 1.8926402664930649e+01
-8.5140266493057348e-01 1.8926402664930649e+01
ITEM: ATOMS id type mass x y z vx vy vz
3 1 63.546 -0.459646 0.898307 -0.623104 -3.88192 -5.41683 -0.223847
7 1 63.546 2.23109 0.768075 0.60486 5.05638 -5.79602 -11.842
22 1 63.546 0.409536 2.51642 1.34232 -20.3469 -3.01412 -10.8399
104 1 63.546 -0.744697 2.00727 3.48519 -8.06363 1.32318 -8.16086
125 1 63.546 1.79587 2.05054 3.49302 -2.71138 -3.95222 -3.16318
21 1 63.546 -0.553939 3.29316 -0.61465 6.97358 3.68334 -0.0533657
101 1 63.546 -0.317015 -0.00286264 2.55732 -0.630835 -2.70374 1.81843
11 1 63.546 5.5667 2.12746 1.46584 -3.17643 -4.34429 -11.9931
26 1 63.546 3.34474 3.11264 1.6212 8.79528 1.54716 8.65694
108 1 63.546 3.71238 1.19935 4.05823 -4.4708 12.0405 -4.49312
188 1 63.546 4.11046 0.13787 1.62041 -3.39027 -2.22664 -2.63792
109 1 63.546 6.14239 2.70838 3.39858 7.52813 3.38407 5.8676
10 1 63.546 6.35406 -0.128587 2.82574 -2.66399 -6.0648 -5.36135
15 1 63.546 9.85377 1.73354 0.81147 -1.16076 -0.319536 2.45764
30 1 63.546 7.79082 3.61379 1.93933 -5.64735 5.31458 -3.47302
112 1 63.546 8.42922 2.23542 3.76833 3.78805 5.53841 2.3981
92 1 63.546 9.77536 -0.716388 0.165619 2.44305 10.9921 -0.208686
29 1 63.546 9.01104 4.00938 -0.390606 -0.629703 -4.83594 -7.96991
9 1 63.546 7.24211 1.69534 0.124173 2.7619 5.35536 7.5045
34 1 63.546 14.1741 1.66963 2.86534 6.89131 -4.34032 -6.74025
116 1 63.546 12.3181 -0.191171 2.96401 -0.982733 3.96198 3.60583
133 1 63.546 11.4774 2.58425 2.90828 -5.38245 0.950246 10.0031
37 1 63.546 13.9114 3.76342 -0.656756 -1.69211 -1.00264 0.47428
33 1 63.546 12.3456 1.93268 0.975976 -5.44634 2.94621 -9.80418
13 1 63.546 11.8894 -0.232031 0.774813 8.87753 6.96819 4.74139
118 1 63.546 17.9562 -0.604029 3.67933 -14.8843 7.98419 2.13498
18 1 63.546 18.2777 -0.00566997 0.83715 -2.52243 6.25093 8.43653
121 1 63.546 17.6796 2.27756 1.74056 -4.78185 8.68528 -4.65446
19 1 63.546 15.5717 1.0905 0.432482 -1.36826 -3.36153 1.57176
38 1 63.546 16.7398 3.14605 -0.347925 -0.635234 -7.2371 -1.52502
120 1 63.546 16.4067 0.718256 2.7411 5.16718 2.06921 -1.21927
137 1 63.546 16.1078 3.48453 2.69939 2.99993 -10.1935 -3.94243
47 1 63.546 2.84677 7.77804 1.27442 2.88126 -6.56164 -1.40703
24 1 63.546 0.0964609 5.12367 0.936299 2.7858 0.0684458 -1.06355
27 1 63.546 2.37915 5.01048 0.782369 0.820112 4.94559 -0.552039
42 1 63.546 0.146223 7.67468 2.05922 -7.86987 7.36767 4.84194
124 1 63.546 0.614756 5.34715 3.8158 2.74954 8.29269 5.6277
145 1 63.546 2.55223 7.78605 3.92199 2.91539 -3.8427 1.27282
128 1 63.546 2.76663 5.31788 3.27096 1.15553 -2.68496 -6.23324
44 1 63.546 1.50084 6.52402 -0.731485 -0.0517842 -17.5609 2.13252
43 1 63.546 1.3308 9.03607 -0.754257 0.619064 -3.05662 3.30873
45 1 63.546 4.32376 5.5491 -0.534807 7.19705 1.86433 2.36549
129 1 63.546 5.4069 5.00016 3.88606 -5.22551 9.02919 0.997308
28 1 63.546 5.71546 4.28365 1.08904 7.25132 -9.91736 -3.79569
48 1 63.546 6.55506 6.69203 -0.157522 -1.75501 -7.14514 -3.01469
46 1 63.546 4.93584 6.56731 2.32241 -9.45481 -5.14158 -0.0491052
148 1 63.546 4.87491 8.53955 3.38463 0.1597 -8.32918 0.988668
32 1 63.546 8.74477 6.0918 0.0117651 2.68753 9.64584 -0.568089
31 1 63.546 7.17572 5.90115 2.86202 -0.66905 0.43767 -11.171
35 1 63.546 10.9615 4.2109 1.17947 6.05791 0.163064 8.03061
50 1 63.546 10.5646 7.17889 1.31554 1.59703 9.75201 -4.30838
51 1 63.546 8.28633 8.58892 2.47644 5.73806 3.28193 4.20058
54 1 63.546 12.5632 5.38419 -0.0919776 -3.32242 -4.39081 -8.31329
136 1 63.546 12.1175 5.87579 2.5005 -0.784815 3.50986 -9.82257
153 1 63.546 11.3707 9.02816 3.48953 -0.755123 7.23792 5.24475
39 1 63.546 14.4481 5.22383 1.6594 -3.55087 -1.86615 1.46348
157 1 63.546 13.7517 8.55076 3.34286 -3.45902 8.34521 0.448009
59 1 63.546 14.598 7.58248 0.854114 7.56498 0.461134 -4.52119
41 1 63.546 18.7812 7.20151 -0.276004 7.08181 0.313501 8.13046
23 1 63.546 18.5265 4.43993 2.98588 -0.601623 -3.16072 7.14182
58 1 63.546 17.2515 7.21224 3.20015 -12.2969 -6.76849 5.4842
140 1 63.546 15.164 6.60843 3.62888 -0.689033 2.03662 1.29987
40 1 63.546 17.3003 6.16369 1.16789 1.02381 3.58582 0.948974
203 1 63.546 0.578768 0.687212 8.17886 9.88498 -5.22536 6.11515
102 1 63.546 1.35753 -0.318279 5.28172 -6.46495 14.7403 6.32098
122 1 63.546 0.345694 3.30969 7.24928 -5.72225 2.28563 -1.81099
204 1 63.546 1.78245 2.81122 5.65013 -3.01394 7.16172 -0.475227
138 1 63.546 -0.616283 3.64041 5.09878 -2.52105 -0.774598 8.7788
107 1 63.546 3.64492 0.667404 6.30561 0.921154 -4.43624 -8.47594
225 1 63.546 5.13059 2.0422 7.73183 5.11592 2.57801 14.2283
126 1 63.546 4.5957 3.27317 5.23067 9.01893 -4.24031 -0.667581
208 1 63.546 6.77668 0.469905 7.73696 1.12866 -0.142302 -4.35517
229 1 63.546 6.89033 3.63017 8.06634 2.15415 -2.84333 6.38583
106 1 63.546 5.63863 0.728538 5.15177 -2.92291 5.77718 12.0104
211 1 63.546 9.18135 1.34286 8.96649 2.55568 5.94636 6.21042
110 1 63.546 8.22452 -0.240737 4.85797 4.74734 -10.2065 -17.291
111 1 63.546 7.09785 2.1105 5.83419 5.66025 1.61492 2.64259
115 1 63.546 9.96273 1.30161 5.07703 -3.93561 0.0381733 5.42495
212 1 63.546 9.43246 2.91092 6.94404 8.51709 0.126121 8.99434
213 1 63.546 8.82261 -0.200418 6.98321 -7.37389 -8.30789 7.29282
215 1 63.546 11.1194 2.2799 7.90247 1.54198 4.2451 -2.47575
139 1 63.546 13.6572 3.82573 4.13244 -5.9994 -11.9634 -17.6798
236 1 63.546 12.9385 1.81121 4.68821 7.18605 -6.6304 5.34571
214 1 63.546 11.4512 -0.494875 8.13909 -10.0166 -5.93506 -7.25835
114 1 63.546 12.1403 -0.501136 5.12842 -2.70415 -2.07551 2.47942
216 1 63.546 13.1999 0.911014 7.00829 -2.91832 -0.171317 -7.96913
220 1 63.546 14.5828 3.37826 6.14643 -4.93123 8.28415 4.04164
237 1 63.546 11.9974 3.44677 5.77034 -8.08162 -4.86275 -10.8087
201 1 63.546 18.8931 0.0147601 6.57913 -0.0656294 1.38743 -2.83
239 1 63.546 15.6092 3.70324 8.1244 9.53605 -3.95694 5.8603
103 1 63.546 16.7867 1.88783 5.60392 -7.52428 7.56264 0.376022
221 1 63.546 17.7042 3.3346 7.28497 2.10909 8.34051 12.8429
134 1 63.546 15.1515 0.284705 5.41358 6.99477 -9.51926 -3.36696
219 1 63.546 16.379 -0.0971592 8.16657 0.462582 -5.36769 -2.51173
227 1 63.546 2.37853 4.73386 8.0559 1.03512 4.09427 4.25742
123 1 63.546 0.710426 5.94081 6.59488 2.82166 6.30094 3.22617
127 1 63.546 2.90438 4.83417 5.80679 11.527 -2.88597 -1.63937
142 1 63.546 1.13967 7.9869 5.75005 2.17568 -0.157722 -7.55693
224 1 63.546 -0.519811 7.13996 8.86383 -5.10565 4.92552 -7.28447
244 1 63.546 1.37113 8.2857 7.81088 -3.5423 -7.42496 -0.120707
147 1 63.546 4.89096 8.96223 5.70764 9.14446 -3.7018 4.12995
232 1 63.546 7.03476 6.55809 8.05839 -0.5874 0.280961 0.138312
149 1 63.546 6.69994 7.44151 4.62229 -2.29407 2.35445 3.9785
146 1 63.546 4.50012 6.70102 4.88759 -2.07789 7.90365 -5.21295
228 1 63.546 4.6618 4.62226 8.18775 -11.0669 0.390205 -13.5347
245 1 63.546 3.54336 7.02206 7.18636 -2.20795 -0.809064 10.4807
131 1 63.546 5.91672 4.77358 5.95897 -9.95552 0.989753 5.76232
253 1 63.546 9.79404 7.29562 7.19448 2.04047 -10.0092 6.45911
230 1 63.546 9.15631 4.63677 8.377 -6.28159 3.37092 -2.26195
132 1 63.546 9.06244 7.38282 4.32167 -5.86866 -10.425 1.12239
150 1 63.546 7.52974 8.55543 6.573 1.58749 -1.91199 3.18683
130 1 63.546 8.4086 5.01261 4.72514 -1.69404 4.31034 -2.98995
233 1 63.546 10.2158 5.1295 5.66701 3.30085 11.376 -3.61707
235 1 63.546 10.7749 5.75209 8.3672 -9.80974 4.24355 -3.70135
159 1 63.546 14.0346 7.6325 5.45791 -12.3561 -3.28441 -5.90595
154 1 63.546 12.5983 5.78866 5.79568 -5.8243 9.21156 11.4154
254 1 63.546 13.7105 7.12694 7.53789 -2.90814 5.56567 -6.21159
135 1 63.546 11.2113 6.76689 4.22971 6.30897 -4.19362 -10.2025
256 1 63.546 11.7875 8.10018 6.15367 0.705881 6.42854 -1.68959
336 1 63.546 13.64 4.7224 8.49289 9.33095 1.27702 -7.54079
257 1 63.546 15.8762 5.21331 6.01916 5.97191 2.6092 -8.39785
240 1 63.546 17.2244 4.41914 4.79921 0.65056 -4.26114 6.46523
258 1 63.546 16.0017 6.33653 8.84021 -5.88721 3.882 2.67141
241 1 63.546 18.1483 5.91699 6.85771 3.74506 11.1704 -4.98112
143 1 63.546 18.8944 7.02626 4.55022 2.67305 -3.44034 -7.85285
304 1 63.546 2.20365 0.672066 10.871 2.20514 2.77992 7.32243
322 1 63.546 2.08232 2.49204 12.5074 4.67295 -1.97683 3.98394
301 1 63.546 0.0846682 0.593527 12.1867 9.47003 3.68956 -1.09758
421 1 63.546 0.196087 2.32199 13.6586 4.9045 14.0287 -3.8842
222 1 63.546 0.970666 2.69805 10.1636 -0.17151 -9.4806 1.04535
307 1 63.546 4.14699 0.78908 13.829 4.6784 2.73146 5.73039
325 1 63.546 3.49133 3.02071 10.4766 -1.21438 -0.466888 -5.57853
308 1 63.546 4.63701 0.111151 11.6936 -18.7771 -4.4033 2.35967
311 1 63.546 6.57752 1.36794 13.103 0.677884 1.43786 -3.99917
326 1 63.546 4.61301 3.31737 12.7046 -7.27133 -5.62657 -8.5769
207 1 63.546 3.89894 0.552295 9.22902 4.23075 -7.14995 -8.43052
226 1 63.546 5.47828 1.91156 10.3585 0.302992 12.2534 1.53356
309 1 63.546 6.9928 -0.771697 11.4059 8.80418 0.530354 0.338162
329 1 63.546 7.50286 1.54955 10.9773 -0.178492 -0.664954 2.04782
310 1 63.546 8.49716 -0.245679 13.0484 4.96136 2.24634 -3.2295
312 1 63.546 9.33346 -0.0638629 10.7468 0.85413 -6.39315 -7.06404
330 1 63.546 8.8167 2.31637 13.0665 2.13136 -3.77024 -8.68154
209 1 63.546 7.69837 -0.84912 9.26926 -9.72458 2.88518 -4.2845
317 1 63.546 14.2596 0.43808 9.70022 5.58953 -0.863012 -1.31277
315 1 63.546 11.2178 -0.327009 12.8946 9.99785 -5.57682 -0.460801
316 1 63.546 11.0984 1.75208 10.1208 -11.9534 -5.95322 -13.1787
334 1 63.546 12.6122 1.43632 12.1912 -5.732 -2.44603 -2.91152
319 1 63.546 14.0269 -0.497628 12.0365 8.32707 0.0176691 -1.84487
338 1 63.546 14.491 4.07784 12.96 -16.9318 -7.50365 1.14319
313 1 63.546 11.6592 -0.716669 10.7256 -1.90333 1.25478 8.77379
234 1 63.546 13.4345 2.31687 9.23522 2.83544 5.91188 11.3064
218 1 63.546 17.8545 0.0331077 10.0943 2.54929 -2.34263 -5.63389
303 1 63.546 15.3417 1.43434 13.5451 -5.27926 -7.73312 5.55761
321 1 63.546 17.8601 1.52801 12.4735 -1.30166 0.706683 5.21639
320 1 63.546 16.1698 0.275283 11.4934 0.229788 -2.7088 -5.5142
337 1 63.546 15.5517 2.6645 10.9479 7.36273 -0.210146 0.926229
323 1 63.546 17.1862 4.03682 13.4551 4.40142 15.8847 3.32651
238 1 63.546 18.4092 2.26561 10.1164 0.0478336 -5.88062 2.14667
246 1 63.546 2.41119 7.66835 10.2276 -9.1572 9.49546 4.07327
324 1 63.546 1.07176 5.50252 10.8058 -0.0979228 1.30599 -9.69902
342 1 63.546 0.428923 6.9208 12.7942 -14.645 4.47032 -3.09009
424 1 63.546 1.86102 4.96408 12.829 3.81549 6.5173 3.43102
242 1 63.546 -0.754338 8.52718 11.2929 -12.471 -7.015 -1.63112
432 1 63.546 6.11967 5.12293 13.029 1.15998 5.13047 -9.61943
449 1 63.546 5.98674 8.24561 13.5743 3.52635 -3.06328 -4.40416
327 1 63.546 3.87142 5.47184 12.3281 4.87367 -6.36246 -3.28814
328 1 63.546 3.45683 5.66314 9.86605 -5.57826 2.91988 -3.53771
331 1 63.546 5.74167 4.32684 10.1124 2.93574 1.5186 4.11896
346 1 63.546 3.22439 7.90634 13.8943 7.35618 1.97498 5.67301
349 1 63.546 4.27268 7.39936 11.7754 5.25921 7.00301 -1.98184
231 1 63.546 6.86782 6.86031 11.2154 0.489358 -11.6662 1.02466
249 1 63.546 4.998 7.21871 9.22209 -6.99862 5.98393 7.33071
250 1 63.546 9.64607 7.22036 10.3839 5.70542 -2.85572 0.607974
332 1 63.546 7.88862 4.89558 10.9504 -0.746439 5.63526 -1.31083
335 1 63.546 10.9289 4.94191 13.1505 1.79213 -0.850178 0.0558363
350 1 63.546 9.0102 6.27268 12.6985 1.12708 1.76385 -0.983383
251 1 63.546 7.55888 8.54141 9.46629 -0.310419 5.97356 -11.2022
351 1 63.546 9.49614 8.91986 11.7143 -5.78641 7.36518 2.18219
457 1 63.546 12.9522 5.57766 13.966 -0.909924 -1.29049 -2.62069
453 1 63.546 11.3998 7.46941 12.7385 5.83145 -9.11325 3.05121
333 1 63.546 11.0243 4.85711 10.7181 5.41846 -1.71577 6.12906
353 1 63.546 12.595 7.09862 9.69083 2.53178 8.48379 -9.96934
354 1 63.546 14.1656 7.43306 12.7223 -9.4737 -7.42488 -7.11772
339 1 63.546 13.5532 5.33521 11.1935 -5.919 -1.37169 -4.27436
357 1 63.546 14.594 8.14426 10.2801 2.57055 -3.08036 -6.78263
341 1 63.546 16.3962 8.16806 12.7407 -12.6342 8.70381 7.45564
340 1 63.546 16.6753 5.0134 10.6676 0.126125 -1.5274 -5.24603
358 1 63.546 15.5439 6.13933 13.8605 -5.74346 -0.752678 6.02673
441 1 63.546 18.9236 5.03765 12.3194 12.8129 -4.92442 -4.03185
243 1 63.546 17.3325 8.35827 9.10321 -5.471 -5.07847 1.38068
223 1 63.546 18.349 6.64073 10.9348 -5.19332 -3.72139 12.7163
2 1 63.546 1.65519 0.0426367 17.8809 1.36447 -0.580955 -16.2991
404 1 63.546 2.18633 1.08242 15.48 -2.07674 -0.496221 -1.84436
422 1 63.546 0.179099 2.16136 16.6252 10.835 0.94425 -6.13867
425 1 63.546 2.23201 3.52624 15.6142 -0.795908 2.58151 4.49339
401 1 63.546 -0.452109 -0.13145 14.8651 0.431351 -3.55824 2.0981
25 1 63.546 2.63997 2.62456 18.8265 -2.46256 1.58205 2.12542
405 1 63.546 4.84747 -0.0122441 15.7759 -5.77841 -7.50145 12.8086
427 1 63.546 3.17703 4.0892 17.4621 -5.58463 16.2058 -6.74081
406 1 63.546 6.45423 -0.0360347 17.4804 5.21411 12.0932 0.254503
407 1 63.546 3.6602 1.31951 17.2475 -3.13376 -0.635456 -3.22201
408 1 63.546 4.54876 2.75466 15.0994 8.79247 2.20999 -16.8489
429 1 63.546 6.84695 3.17465 14.6993 -4.24025 4.42378 -0.470939
8 1 63.546 5.28106 2.0665 18.8012 0.616779 -3.02725 2.4368
409 1 63.546 7.56008 0.159019 15.2212 -2.22189 5.65333 6.01677
411 1 63.546 7.12705 2.26048 16.7482 0.133873 -2.48264 1.7189
412 1 63.546 9.33608 1.65444 16.1349 -1.09804 13.749 1.00932
430 1 63.546 9.15087 3.77869 14.6943 4.63705 -5.34158 -8.51806
410 1 63.546 8.56751 -0.709642 17.5616 13.3126 -10.6152 7.90653
413 1 63.546 10.425 -0.758382 15.2612 3.27169 5.07774 3.39668
439 1 63.546 13.5296 4.00426 16.9669 -12.0322 -1.14351 7.3452
12 1 63.546 11.5956 3.80832 18.4024 -4.59438 0.174795 -8.02493
415 1 63.546 11.2944 1.57426 17.7216 -3.10916 3.30738 -0.756301
416 1 63.546 13.5628 0.346255 14.1975 12.7292 -0.993225 1.76556
433 1 63.546 11.4447 1.77726 14.7439 -0.96258 -5.56899 4.35386
434 1 63.546 12.643 0.337973 16.2691 3.33042 3.94434 -3.8957
437 1 63.546 14.2472 2.04585 15.3945 0.872781 -3.94032 -6.85909
16 1 63.546 13.4847 -0.0452784 18.4681 10.8625 1.57485 8.61337
20 1 63.546 17.3128 1.15661 17.5888 1.70064 0.0106438 5.53258
438 1 63.546 16.3948 3.98771 17.6162 -0.479642 -2.81751 -3.71886
403 1 63.546 18.0432 1.95959 14.6296 -5.13095 -4.41536 -6.53346
17 1 63.546 15.8279 -0.484868 17.8953 1.15163 -2.69697 -6.06028
419 1 63.546 14.9765 1.77746 18.232 1.09789 1.74542 7.83313
443 1 63.546 -0.157266 6.2586 15.9673 1.17138 5.72125 -2.15502
423 1 63.546 0.250148 4.2275 14.4277 -3.94445 4.35399 -1.79207
462 1 63.546 1.4771 8.3789 16.0419 -16.7678 -0.879401 4.29304
445 1 63.546 2.05597 6.00436 15.2305 11.6845 3.5083 1.2852
442 1 63.546 0.889454 4.55873 17.3386 13.9614 -6.27356 6.32057
447 1 63.546 3.89242 7.1839 17.7106 -0.747175 2.59182 -1.15948
446 1 63.546 4.77304 7.88038 15.6813 3.37109 5.72599 12.5828
431 1 63.546 6.87079 6.84528 16.8534 -13.0612 4.67453 3.50444
428 1 63.546 4.30434 5.32556 14.729 -0.383399 -8.74453 2.96861
426 1 63.546 6.83918 4.3537 18.8639 4.86724 -1.71107 9.69852
65 1 63.546 5.42062 8.9119 18.691 0.533396 -8.43625 2.574
454 1 63.546 10.7329 6.76043 14.9417 -7.14334 -3.14141 -14.9906
450 1 63.546 8.20681 5.99493 14.7125 -10.9663 2.45645 -3.43812
435 1 63.546 8.78046 4.24025 17.1614 4.92273 -3.49062 -13.6008
53 1 63.546 9.91822 7.93875 18.5357 -1.72102 1.35379 -1.42593
49 1 63.546 8.82487 8.47759 16.1036 4.93065 3.23535 -2.46046
456 1 63.546 12.7209 8.68101 15.0097 -2.89126 -11.5466 -9.26987
56 1 63.546 12.5924 7.53468 18.5822 -12.5288 -3.04536 -1.29301
436 1 63.546 11.2951 4.09396 15.8072 8.81546 -0.661586 1.26957
36 1 63.546 11.7049 5.81452 17.3342 -1.08415 3.09052 -3.9444
57 1 63.546 14.8368 5.69319 17.8018 -4.88849 -2.70336 6.44389
458 1 63.546 18.4707 4.31036 16.5462 3.17583 -3.81512 -9.59361
440 1 63.546 15.3235 4.09328 15.3537 -11.4184 1.49343 -8.43521
459 1 63.546 15.0523 7.93043 16.8177 6.06218 0.227842 4.44537
77 1 63.546 16.5846 7.98431 18.8003 3.80766 -0.393039 9.28258
60 1 63.546 18.1884 7.64823 17.3298 2.91154 -0.899659 1.05201
478 1 63.546 15.764 8.9017 14.9629 -8.07648 -0.384308 5.01766
460 1 63.546 16.5537 6.33621 16.2151 7.78298 1.0596 10.3432
343 1 63.546 18.2632 7.68952 14.6276 10.0458 -5.55844 -5.05036
62 1 63.546 3.07064 10.6596 0.153175 -4.00324 0.0204225 15.0088
63 1 63.546 0.127653 10.8972 0.177371 -2.48748 6.62852 -9.52335
164 1 63.546 2.18181 12.597 2.94505 7.23751 8.15369 1.56274
141 1 63.546 1.4331 10.0519 2.17295 8.26233 -0.992575 -4.44488
181 1 63.546 -0.360746 12.5033 2.23734 1.93972 -5.64784 -0.056226
67 1 63.546 4.5189 12.6181 1.69103 6.27864 -3.1246 1.32698
144 1 63.546 3.8107 10.2266 2.93633 1.3589 -0.270593 -1.16997
66 1 63.546 5.48857 10.0907 1.45459 3.42766 -9.29591 2.03885
68 1 63.546 6.27684 12.861 0.818705 9.97354 -2.61481 11.0427
166 1 63.546 6.02903 11.8221 3.48222 -8.77498 -8.74247 -0.914907
69 1 63.546 7.09129 9.15083 0.524949 -10.5173 -4.32015 -1.47325
72 1 63.546 10.4032 12.5496 1.45405 1.25178 -10.8012 8.87215
169 1 63.546 8.06611 11.0086 1.24204 0.396936 4.37964 -6.14167
170 1 63.546 7.99326 12.5724 3.13471 -3.13855 -1.6176 -9.83016
490 1 63.546 9.74824 13.7603 -0.840243 -7.05414 -4.97603 2.80527
93 1 63.546 12.1991 13.466 -0.260303 -2.00633 -5.06162 0.866962
70 1 63.546 12.8779 12.2087 1.67934 3.8638 -1.00678 -0.881809
74 1 63.546 13.1905 9.12764 0.396552 -0.827917 2.80408 10.2854
76 1 63.546 14.4067 11.7341 -0.503429 1.8652 -7.14772 -8.65113
172 1 63.546 11.1651 13.4434 3.33888 13.1021 4.37511 -1.06246
176 1 63.546 14.7071 10.8793 2.43685 3.67748 -8.05917 -8.90587
94 1 63.546 14.946 13.6083 1.05855 4.66214 -4.68793 -9.25035
55 1 63.546 11.0875 9.9221 1.43428 14.134 8.40771 -7.1678
73 1 63.546 12.0619 10.8263 -0.314077 -5.11594 1.3497 -11.4262
161 1 63.546 18.7218 10.7639 3.92165 5.00611 -5.40008 13.239
177 1 63.546 15.7816 10.2553 0.103264 1.54347 -12.7881 -0.502552
180 1 63.546 17.4981 12.2194 0.310049 -4.60924 -0.304382 2.32844
160 1 63.546 17.7491 9.10676 1.41223 -2.58202 -3.72648 -2.47958
178 1 63.546 17.1456 11.4342 2.29724 6.39262 11.7823 -3.67485
82 1 63.546 1.43 15.8614 -0.2536 -2.984 4.57024 14.0294
83 1 63.546 -0.539698 15.1794 0.605014 -8.01048 0.109057 -1.98996
184 1 63.546 2.62083 18.1939 -0.657414 5.64196 -1.7309 -9.90829
185 1 63.546 2.38917 15.7634 2.44924 1.33506 -2.34122 -11.0553
182 1 63.546 0.174936 15.2461 3.06952 -0.766111 -4.87304 0.297839
1 1 63.546 0.849808 18.6119 0.691395 3.49004 8.13451 -0.48735
85 1 63.546 2.875 14.0517 0.382314 -1.86799 1.9619 1.66815
6 1 63.546 6.938 18.0328 0.875565 5.6332 -11.8764 2.17151
168 1 63.546 4.09511 14.4806 2.89881 -10.9677 -9.35546 -4.45392
87 1 63.546 4.75786 18.6719 -0.267326 3.47232 10.3333 1.18226
86 1 63.546 4.06957 16.996 1.16538 3.51414 4.92858 0.666693
189 1 63.546 6.31549 15.7903 2.2546 -6.43932 5.64153 -7.02205
186 1 63.546 4.52127 18.7029 3.58527 -11.9708 2.21763 -7.18689
486 1 63.546 5.10964 14.2738 -0.609199 3.20168 11.6972 3.36274
71 1 63.546 7.82216 14.1321 1.82046 -6.74876 -6.44177 -7.12047
192 1 63.546 7.76381 17.3787 2.95573 0.637443 -10.957 0.308838
113 1 63.546 9.6033 18.7335 3.17631 -0.0283801 7.87145 -4.21053
91 1 63.546 9.15905 16.571 1.07806 -2.33784 2.81432 -0.770386
90 1 63.546 10.4526 14.6843 1.41978 -3.96669 -2.47433 -1.02383
193 1 63.546 10.984 15.6 3.89034 3.83807 3.38828 7.93013
89 1 63.546 7.19352 15.4734 -0.210526 -5.4347 14.1566 3.62137
75 1 63.546 12.6048 14.6156 1.99145 -2.89622 2.6352 -7.32524
96 1 63.546 11.6683 16.4128 -0.195899 3.17983 -7.23984 9.74962
97 1 63.546 13.9797 16.1802 0.216732 5.544 16.976 8.20574
95 1 63.546 11.6483 17.462 1.85014 -0.480712 -1.35169 -2.25156
196 1 63.546 13.8287 16.728 2.64592 3.82475 -8.22608 -1.25965
117 1 63.546 14.5458 18.6949 3.66642 1.64385 4.11604 1.68794
14 1 63.546 14.0068 18.645 0.9131 -1.02635 4.29842 -2.76064
198 1 63.546 17.9093 14.2448 2.56236 14.8855 5.11344 0.654274
98 1 63.546 16.4052 15.395 0.677795 -4.30937 9.53805 -3.62621
99 1 63.546 16.3151 17.8835 1.63479 1.6083 14.3813 5.74307
197 1 63.546 15.7947 15.1392 3.33447 -1.7718 5.99299 -13.3752
200 1 63.546 18.9149 16.9912 1.81979 -1.19663 -3.12622 -2.68425
100 1 63.546 18.519 17.7409 -0.256356 14.836 -5.88898 5.62539
298 1 63.546 0.310085 13.0211 8.09668 3.63016 6.59299 4.56901
162 1 63.546 1.96166 9.96372 4.36181 5.56129 -1.52444 3.09679
163 1 63.546 1.14309 12.0902 5.48776 -5.80106 -4.72738 -1.11837
261 1 63.546 -0.148988 9.75595 6.69103 -3.4701 -11.6909 6.53915
265 1 63.546 2.50814 11.9976 8.28556 19.1024 -1.89095 -2.07358
248 1 63.546 3.01821 9.50574 8.22918 -0.725478 8.99434 0.351204
165 1 63.546 3.56994 12.0882 4.533 -5.7712 3.97292 -8.19596
152 1 63.546 7.02498 10.0384 4.88384 -6.0366 -1.38083 6.24151
271 1 63.546 6.04524 13.1266 8.23968 3.90136 2.59755 -1.93778
252 1 63.546 5.76118 9.409 7.68497 -7.82061 6.69532 -3.34921
151 1 63.546 5.88703 11.7182 6.69339 3.12436 1.20683 2.84691
171 1 63.546 6.40676 13.6467 4.91501 -11.0606 -2.1835 4.0313
269 1 63.546 4.57365 13.6673 6.74122 -12.9979 9.38987 4.14922
155 1 63.546 8.43808 12.3371 5.69575 -6.42194 13.9896 -7.96817
173 1 63.546 9.35359 10.5184 4.39101 5.68932 13.7952 -5.21762
255 1 63.546 10.7023 10.0962 6.39249 1.15605 -5.05015 -5.28116
270 1 63.546 7.79951 10.6399 7.43525 4.77536 3.93742 4.81693
273 1 63.546 10.3031 12.003 8.34798 4.24313 -5.2382 8.20239
352 1 63.546 9.68806 9.68853 8.59618 -8.55647 4.61383 6.33661
156 1 63.546 12.8394 11.1541 4.42047 -3.382 -5.26879 1.93552
274 1 63.546 12.7972 9.64391 7.72025 -0.71635 0.786871 13.9937
174 1 63.546 11.1049 12.5383 5.98963 0.212823 16.4626 -4.4163
175 1 63.546 13.9423 13.9 4.6463 -5.10273 -0.22045 19.2077
276 1 63.546 13.2392 12.2131 6.94556 -1.11473 -7.70269 1.41969
277 1 63.546 14.1224 9.97129 6.27664 -3.14674 6.1109 -0.25552
158 1 63.546 15.8971 9.81592 4.20008 3.68044 -0.326504 -0.274412
278 1 63.546 15.8558 11.712 7.07302 -2.47273 -12.2943 -10.4014
259 1 63.546 15.1837 9.28251 8.67744 -5.96142 -2.2787 -4.79418
260 1 63.546 16.7464 9.47187 6.16715 3.7949 -0.340659 -8.09746
179 1 63.546 15.5594 11.9337 4.70943 5.20709 -9.87228 2.94163
280 1 63.546 17.487 12.2165 5.63586 -3.16788 2.51298 -0.529823
263 1 63.546 17.2003 10.641 8.50159 9.9398 8.64142 -3.21942
205 1 63.546 2.56289 18.6799 7.88494 0.987481 -5.74987 3.94976
105 1 63.546 2.92222 17.5256 4.71458 2.28251 7.6959 -5.72752
167 1 63.546 1.45844 15.9103 5.33817 4.84526 7.84002 -1.43974
287 1 63.546 2.37012 16.3265 7.35789 -0.556602 -2.03359 -0.915786
187 1 63.546 -0.323504 17.4214 4.19872 8.24769 2.08512 4.46188
281 1 63.546 -0.280401 14.0656 6.21286 -1.91464 1.32949 -9.19553
284 1 63.546 -0.328933 16.4884 6.6611 -4.69276 0.961422 -4.01008
285 1 63.546 2.31355 14.052 7.07814 -2.20699 -2.57099 -0.00840795
202 1 63.546 0.217611 17.837 8.31465 4.25475 -6.27866 -8.09778
289 1 63.546 6.3734 15.6764 7.78271 7.32026 12.4556 3.48849
268 1 63.546 3.78246 15.6288 5.31207 -2.02991 4.74471 -0.337627
288 1 63.546 5.12661 18.0865 6.99762 -0.256322 -9.74639 3.88835
191 1 63.546 6.39612 16.6754 4.8777 -4.18425 -2.73785 -8.17523
293 1 63.546 10.417 15.9608 7.23596 -8.38088 13.634 6.30189
292 1 63.546 7.92678 17.4397 7.53983 -3.2771 2.17246 10.5212
195 1 63.546 10.0438 17.8532 5.50697 -1.9141 -0.771028 -5.0484
190 1 63.546 8.42399 14.5972 4.17042 1.10374 7.43633 -19.1855
272 1 63.546 8.70811 14.8485 6.22834 -3.7734 3.31375 -3.80043
294 1 63.546 12.8559 14.9032 6.62118 -3.82752 -5.55366 -13.1861
296 1 63.546 14.4682 18.5563 7.40399 2.23059 0.520181 1.77968
295 1 63.546 11.3909 17.3297 8.73852 -2.26228 -8.07946 4.75375
194 1 63.546 12.377 17.1707 5.06631 -1.35803 4.54241 -0.78476
300 1 63.546 17.6143 15.3785 7.13397 -6.95787 0.420119 1.55026
297 1 63.546 16.0074 14.3826 5.63726 -1.36133 4.02008 3.1386
199 1 63.546 15.0248 16.2777 6.96598 -1.55047 -2.75548 13.8661
217 1 63.546 17.3632 17.6177 8.12377 10.7127 -7.57053 -1.39597
183 1 63.546 16.7309 16.617 4.98644 3.34767 -3.04616 -6.24699
119 1 63.546 16.9121 18.8764 5.86974 0.215627 7.37006 2.06923
262 1 63.546 0.299486 9.8975 9.46482 -1.51577 -0.643637 3.44752
364 1 63.546 1.75977 11.7945 12.5287 4.70791 -6.38577 -0.911219
345 1 63.546 1.43968 9.69851 11.7054 3.9299 4.95804 13.6914
247 1 63.546 2.73827 11.0971 10.2938 6.14697 -3.01338 7.298
444 1 63.546 0.208932 9.3268 13.7588 3.29017 -2.10691 -5.63918
264 1 63.546 1.43716 13.2168 10.3402 -13.2287 11.517 8.01549
365 1 63.546 3.59774 10.0111 12.7967 0.998715 -2.61838 15.9641
368 1 63.546 4.05954 12.6606 12.2274 -2.57512 -6.96561 5.81478
369 1 63.546 6.49691 12.5044 10.7459 -8.08478 3.68045 -5.73988
348 1 63.546 5.88026 10.2012 11.9852 -6.80973 2.8105 -3.81223
266 1 63.546 4.61415 9.69632 9.89395 6.6743 0.0139219 1.70845
267 1 63.546 3.61343 13.4274 9.87454 5.8615 1.82171 5.92344
370 1 63.546 8.42359 11.4594 12.2835 9.82108 1.17854 3.12685
372 1 63.546 8.91449 11.7478 10.0615 -1.57472 -7.86415 1.53931
375 1 63.546 10.6896 12.7591 12.6372 -13.3136 -7.39084 4.63815
355 1 63.546 11.3034 10.3459 12.1692 2.33266 5.71926 3.66251
373 1 63.546 11.7529 11.8584 10.019 -6.94628 12.7478 -10.8363
374 1 63.546 13.5321 11.0571 13.7097 -1.02101 -3.31989 -0.800058
377 1 63.546 14.1806 10.2116 11.1034 2.7462 1.85361 -0.923812
379 1 63.546 13.0415 12.6625 11.5433 -10.8266 5.5225 -0.202645
356 1 63.546 11.8154 9.5582 9.79456 -9.04825 -1.93473 -0.652017
361 1 63.546 18.7915 12.4381 11.8593 0.709451 9.38498 9.8037
360 1 63.546 16.7012 9.52724 10.7997 12.883 -7.96427 -10.7686
359 1 63.546 15.5499 10.5129 13.0715 1.26483 -4.48561 6.11598
376 1 63.546 15.0658 12.24 9.15783 -0.934794 -7.6414 3.42226
380 1 63.546 16.4087 11.9528 11.6162 -10.8871 1.66557 -8.28801
398 1 63.546 16.6635 13.2004 13.3151 -2.85532 1.52949 11.9893
344 1 63.546 18.7651 10.4718 12.3326 4.6714 -8.16513 14.2044
279 1 63.546 17.9494 12.5383 9.76344 5.40213 0.637 -0.10903
500 1 63.546 -0.669902 17.9958 12.4316 6.00789 10.0829 -3.55647
282 1 63.546 -0.321036 14.6829 10.5924 13.1536 -7.68428 1.70696
305 1 63.546 3.05675 18.3425 11.5938 -9.87998 -8.20793 -1.52476
381 1 63.546 -0.268397 14.426 13.0978 -0.437551 -4.879 2.74129
382 1 63.546 2.49995 14.4968 12.1595 -3.87266 2.39626 -6.38301
383 1 63.546 0.690762 16.0995 11.7051 0.903352 -10.0656 -1.86382
384 1 63.546 0.750784 18.6831 10.2735 -4.21123 0.440634 -3.1093
385 1 63.546 2.97264 16.9672 9.67457 0.853511 7.97382 4.84672
387 1 63.546 2.51819 16.6735 13.3411 -5.36225 -11.8683 -4.6162
302 1 63.546 2.05384 18.9083 13.6178 0.377397 2.85967 12.0086
386 1 63.546 5.38887 14.5268 13.1692 0.902712 -4.57573 9.97973
388 1 63.546 5.05586 16.6593 12.0253 -0.0421205 -1.54603 1.37407
306 1 63.546 5.20225 18.4271 13.5208 0.925595 0.228026 1.11874
206 1 63.546 5.36834 17.4682 9.9604 0.966758 -6.08932 -5.61643
286 1 63.546 5.61764 14.7414 10.4 1.54486 -9.76242 -3.87532
389 1 63.546 7.22246 16.7985 10.406 -6.67392 9.91301 -6.74156
391 1 63.546 7.16564 16.6453 13.5681 0.748261 -5.33395 -10.2138
210 1 63.546 9.37614 17.0869 10.5967 3.7416 -17.9464 7.49711
392 1 63.546 10.283 17.0021 12.883 11.9643 7.76654 -1.67018
290 1 63.546 10.8775 14.8748 9.70093 7.41131 1.31253 -0.944675
291 1 63.546 8.37335 14.9207 9.30013 5.98584 -5.93524 8.69592
496 1 63.546 14.9328 15.4913 13.2585 9.55136 -0.622944 -5.2218
275 1 63.546 13.3505 14.5037 9.04465 5.7931 -4.55604 1.47792
314 1 63.546 14.8785 16.5458 11.4983 0.950015 -7.18853 -7.86584
393 1 63.546 12.0178 16.6073 11.0671 7.515 3.56343 0.172809
394 1 63.546 12.0793 14.7807 12.5958 -9.66228 3.28525 3.54902
395 1 63.546 12.8644 17.3698 13.1467 -4.65939 -0.896254 14.7701
396 1 63.546 14.4309 18.002 9.63468 6.45107 1.7619 -3.85476
397 1 63.546 14.9049 14.1518 11.2215 -5.50027 -9.66771 -2.70506
417 1 63.546 15.4537 17.9421 13.3486 2.0614 3.43567 -0.792329
283 1 63.546 18.5772 16.8941 9.82389 0.102084 3.36232 -5.48962
299 1 63.546 15.6101 15.8064 9.23022 0.21007 -3.72206 -7.54011
400 1 63.546 17.2798 15.3618 12.1121 -4.86346 2.72805 10.4908
318 1 63.546 16.6167 17.9047 10.756 -1.08071 1.62184 -4.80361
64 1 63.546 0.0836862 12.7972 18.9214 -2.70342 -1.41879 3.2201
362 1 63.546 1.71106 10.8851 15.219 -1.51836 1.21641 1.95949
363 1 63.546 0.187605 12.4386 14.4014 -8.79623 -4.99708 -4.20812
367 1 63.546 3.00968 13.4784 14.5088 6.60929 2.0662 0.395793
461 1 63.546 -0.334869 9.78417 16.8796 11.6631 -9.72383 -4.29925
464 1 63.546 1.41571 12.5588 16.8134 -4.96345 -9.97369 -8.47736
61 1 63.546 1.67721 10.6084 17.4925 1.53625 -5.19368 3.38187
366 1 63.546 5.7752 12.3711 14.1168 6.2234 5.11365 -1.79604
347 1 63.546 5.17055 9.91479 14.8085 -2.83149 3.24842 -1.069
465 1 63.546 3.46381 11.0256 16.4637 9.42578 -5.06992 -3.78299
467 1 63.546 3.5285 12.5282 18.0229 2.2582 -0.105628 1.55274
466 1 63.546 5.60151 11.5406 18.6163 -5.63829 -2.1012 7.99656
468 1 63.546 5.47487 13.9196 15.9231 -2.31998 -7.42437 5.26602
469 1 63.546 6.57145 11.7039 16.5228 1.30843 10.741 -4.79154
52 1 63.546 9.3233 11.4998 18.696 -1.48685 11.498 4.76617
371 1 63.546 8.25832 13.3819 14.3752 1.59266 -2.57318 3.55259
455 1 63.546 10.9625 10.3769 17.0711 2.53664 -2.99112 0.15702
390 1 63.546 10.8554 13.5622 14.9433 0.387809 -1.00349 2.35642
448 1 63.546 7.28268 9.71223 17.4562 14.8974 7.86682 3.3375
471 1 63.546 7.52665 13.9178 17.4877 10.1623 -1.61722 2.69975
451 1 63.546 7.97409 10.4097 15.177 0.982661 1.24534 -2.77542
470 1 63.546 8.89407 12.1723 16.451 -0.62526 -1.10429 4.08355
473 1 63.546 10.7114 11.5973 14.6717 -2.06109 -3.83945 4.80864
452 1 63.546 10.3903 9.2601 14.1754 -0.554619 -1.84945 -8.11873
474 1 63.546 13.5959 9.65479 18.1629 3.84433 -4.6075 5.64837
475 1 63.546 11.2431 12.6761 17.0485 0.772178 -0.396792 -3.71817
476 1 63.546 13.4168 13.5817 14.336 8.30257 -6.58048 4.68256
477 1 63.546 13.3015 10.4576 16.0545 -11.8634 -0.277167 12.4798
479 1 63.546 13.6228 12.6053 17.356 5.81722 -4.25537 0.00646176
78 1 63.546 18.5131 9.58326 18.8422 1.16609 -0.746459 4.61824
378 1 63.546 18.4045 10.5138 14.6545 -7.38628 1.459 5.41041
463 1 63.546 18.4986 12.3324 16.8893 -3.0313 11.7392 0.991287
480 1 63.546 16.2868 12.4207 16.4528 0.662164 5.28919 -5.4785
80 1 63.546 16.8237 11.1878 18.1071 -5.38909 -7.25362 -5.97662
84 1 63.546 2.38057 18.148 16.7515 4.81931 -5.67266 -14.0283
481 1 63.546 0.729273 15.029 14.7902 2.38045 4.947 -6.48726
482 1 63.546 0.26618 14.5578 17.1429 -12.7936 -0.754221 2.6265