ITEM: TIMESTEP
2000
ITEM: NUMBER OF ATOMS
500
ITEM: BOX BOUNDS pp pp pp
-7.0553885982200443e-02 1.8145553885982419e+01
-7.0553885982200443e-02 1.8145553885982419e+01
-7.0553885982200443e-02 1.8145553885982419e+01
ITEM: ATOMS id type mass x y z vx vy vz
4 1 63.546 1.79397 1.67945 -0.0107662 3.28221 -0.103402 -0.746836
7 1 63.546 3.66544 1.66689 1.79498 -0.462023 2.12307 1.38265
22 1 63.546 1.78225 3.52462 1.77714 2.58484 -0.0345546 -2.55338
104 1 63.546 1.71858 1.57206 3.50587 -1.72584 -1.5825 0.885863
121 1 63.546 -0.0650888 3.38077 3.77379 0.347894 -2.48052 -6.44955
125 1 63.546 3.52468 3.52074 3.55994 -3.30996 -0.410054 -0.118694
3 1 63.546 -0.0038618 1.71574 1.86385 -1.93155 1.51492 5.26349
8 1 63.546 5.31259 1.76426 0.144937 -0.0531035 -0.722087 2.55607
11 1 63.546 7.06911 1.64919 1.75321 -1.76646 -6.17882 3.07041
26 1 63.546 5.42144 3.4888 1.80578 -3.22314 2.68606 2.8828
108 1 63.546 5.34926 1.68633 3.75835 -1.44133 0.255162 -3.73455
129 1 63.546 7.23043 3.39774 3.47389 -0.728375 -2.04951 -1.19
30 1 63.546 8.92295 3.52952 1.67939 -1.33804 -1.80332 -0.787571
29 1 63.546 7.10215 3.45907 0.0318221 -0.395499 -2.35421 3.48906
12 1 63.546 8.88081 1.65588 0.07116 3.60966 3.12367 2.33111
112 1 63.546 9.1381 1.77697 3.39252 1.38353 4.67027 1.63521
15 1 63.546 10.8342 1.75629 1.62375 2.09688 3.08548 0.0901731
34 1 63.546 12.651 3.56657 1.74287 -0.548517 4.48084 -0.455917
116 1 63.546 12.4529 1.76298 3.47758 -3.24225 -0.670304 -3.75471
133 1 63.546 10.9455 3.68119 3.55375 -0.254378 -2.71487 -1.00195
33 1 63.546 10.8816 3.57124 -0.0139103 -0.871529 3.0637 -1.53313
19 1 63.546 14.365 1.7072 1.85667 -2.80732 -0.824015 2.21628
20 1 63.546 16.1858 1.6675 0.238596 0.712431 0.760687 0.177201
38 1 63.546 16.4663 3.54085 1.78815 -1.53597 1.18981 -3.32584
120 1 63.546 16.2506 1.95306 3.75866 -3.92335 -4.19803 -1.13973
137 1 63.546 14.4212 3.52167 3.66196 3.98147 5.45057 -2.30332
18 1 63.546 16.4054 -0.0290222 1.98765 -2.71805 0.892371 -1.10547
17 1 63.546 14.4206 0.0152822 -0.069074 1.94274 -1.02563 -2.8148
23 1 63.546 0.0314802 5.34754 1.65717 2.69794 -0.571427 -2.28406
27 1 63.546 3.50461 5.28686 1.82095 -3.42927 -1.51537 2.61835
42 1 63.546 1.76487 7.19408 1.71961 -2.56739 -3.36869 -2.50997
124 1 63.546 1.62637 5.3735 3.50354 -1.91469 0.469657 2.98884
145 1 63.546 3.61492 7.29106 3.5247 0.738658 -2.8947 -0.344122
144 1 63.546 1.79215 8.94743 3.46746 1.37379 -5.13586 1.01593
52 1 63.546 8.93203 9.01056 -0.0555778 -3.08356 1.06156 -3.06623
31 1 63.546 7.00596 5.55143 1.55243 -1.2606 2.16543 -2.12264
46 1 63.546 5.29849 7.27864 1.82985 -0.251289 0.852686 2.49077
51 1 63.546 7.17436 8.90678 1.8289 -2.08251 0.328029 -1.2006
128 1 63.546 5.26452 5.39557 3.4969 -2.05035 -1.47068 -1.72205
149 1 63.546 7.10535 7.12773 3.53893 3.39111 1.27481 2.6538
32 1 63.546 8.90914 5.28068 0.0252545 -0.0331045 1.37457 0.693337
50 1 63.546 8.85742 7.23256 1.74418 -2.2203 -4.26668 1.8297
132 1 63.546 8.91594 5.4568 3.35918 0.0950642 -5.17112 1.29966
35 1 63.546 10.9482 5.26635 1.80593 -1.56733 0.348783 0.515924
156 1 63.546 12.4465 8.98664 3.4954 -3.90657 0.63421 -0.559874
54 1 63.546 12.736 7.11367 1.67792 3.39896 -5.47358 0.711089
136 1 63.546 12.848 5.39219 3.65367 2.19666 -0.401247 -3.32208
153 1 63.546 10.756 7.23051 3.46551 2.95589 0.774835 1.66655
56 1 63.546 12.7393 8.98926 0.00355553 3.14308 -5.17628 -2.78349
53 1 63.546 10.826 7.34392 0.1099 -0.842948 -0.297369 -1.69619
36 1 63.546 12.6173 5.40669 -0.040634 6.55855 -0.808262 -0.57093
141 1 63.546 18.1227 7.22557 3.36031 -0.46276 0.0740355 -2.84758
60 1 63.546 16.5225 8.96432 0.077688 1.01996 -2.70153 -0.0278306
39 1 63.546 14.5826 5.15172 1.69846 0.664494 2.27122 2.48751
58 1 63.546 16.3784 7.07901 1.66361 -0.333062 2.8368 -0.257206
140 1 63.546 16.3729 5.22572 3.59359 1.34532 -2.03977 3.90159
157 1 63.546 14.4941 7.23959 3.52179 1.12124 -5.33341 -2.92166
57 1 63.546 14.6726 7.06176 -0.021764 2.98082 -0.111366 1.36329
102 1 63.546 1.74682 -0.0675096 5.3066 -1.83471 0.73796 2.62348
107 1 63.546 3.60661 1.68578 5.48301 0.0679676 1.61228 2.18222
122 1 63.546 1.87277 3.49791 5.49037 2.23489 4.97713 3.60253
201 1 63.546 -0.0656349 -0.0324991 7.37833 2.2472 0.148773 0.148773
204 1 63.546 1.74982 1.73622 7.27453 -2.061 3.3633 -2.67241
205 1 63.546 3.55722 -0.0505001 7.23042 -0.124347 -1.422 0.735401
225 1 63.546 3.52642 3.45605 7.32401 -1.29884 1.21795 -1.19519
207 1 63.546 3.75668 1.70027 8.99129 2.03917 -0.162923 -0.47518
103 1 63.546 0.0644731 1.68227 5.39828 2.02911 0.280737 1.46744
221 1 63.546 0.1151 3.49639 7.30128 -5.82507 -0.524731 -2.76969
210 1 63.546 8.9306 0.0632484 9.03702 0.465187 -0.412498 -3.12939
111 1 63.546 7.35987 1.75929 5.10842 -4.49777 2.42991 2.1084
126 1 63.546 5.30385 3.59951 5.47361 -1.50195 -2.05574 3.25605
208 1 63.546 5.49947 1.58784 7.18851 -0.452443 -1.46974 1.94447
209 1 63.546 7.23328 -0.014628 7.25998 -0.193629 0.986555 -3.35877
229 1 63.546 7.24034 3.58354 7.0703 -1.38388 -2.04866 2.90039
211 1 63.546 7.29708 1.7885 8.8578 -0.249645 -2.71589 -1.54554
226 1 63.546 5.41472 3.67771 8.95811 -5.13397 -0.85844 -2.05312
213 1 63.546 11.0074 0.0281 7.37082 6.85385 1.88174 -3.18924
130 1 63.546 9.21912 3.5407 5.33678 -0.433039 -2.47748 -0.300772
212 1 63.546 9.04927 1.78544 7.22511 0.319745 3.67018 -0.503459
114 1 63.546 12.8277 0.100322 5.42946 2.99332 4.63773 0.365462
115 1 63.546 10.8157 1.67405 5.23691 -6.58886 -2.12096 -0.716401
134 1 63.546 12.6727 3.36942 5.4755 1.71483 2.48011 1.04062
216 1 63.546 12.8192 1.86412 7.33869 -2.56007 -3.16526 -0.41256
233 1 63.546 10.8438 3.47851 7.14806 0.330941 0.23928 1.80951
215 1 63.546 10.9303 1.82371 9.01998 -1.10204 3.3615 1.75279
234 1 63.546 12.5798 3.73327 9.01952 6.33622 2.78461 -2.56758
230 1 63.546 9.10498 3.65284 9.0155 1.72164 -1.92806 -0.338287
118 1 63.546 16.3128 -0.0375232 5.31381 0.375778 2.03747 2.40395
119 1 63.546 14.4322 1.75027 5.46548 -1.92483 -2.35328 -1.9456
138 1 63.546 16.3886 3.68721 5.59411 -3.64111 1.30845 -0.656373
217 1 63.546 14.5732 -0.0205729 7.24723 1.36149 0.429309 0.699209
220 1 63.546 16.1354 1.94057 7.18847 6.34062 -0.684954 -3.46214
237 1 63.546 14.3835 3.64009 7.41483 -0.463712 -0.764798 -1.02227
218 1 63.546 16.2716 -0.0553918 9.00775 -2.53092 -0.0283561 0.656342
147 1 63.546 3.5497 8.93255 5.48925 1.86315 -0.265467 1.63008
244 1 63.546 1.87267 8.9097 7.15936 0.760732 1.28188 -0.52572
143 1 63.546 -0.06539 8.96658 5.31118 -0.478095 0.159772 0.318829
127 1 63.546 3.45959 5.48296 5.20826 2.22851 -1.52619 -0.088711
142 1 63.546 1.62058 7.26039 5.19884 4.38402 -1.00464 0.938447
224 1 63.546 1.67513 5.41748 6.99456 -4.77155 1.49043 -1.87381
245 1 63.546 3.43886 6.97804 7.28997 0.500798 -1.83291 -0.292599
227 1 63.546 3.5761 5.38536 9.00495 0.461215 1.76666 -1.65043
242 1 63.546 1.61408 7.22334 9.02316 1.87479 0.887568 -0.179326
247 1 63.546 3.48839 8.94964 9.01773 -2.35582 6.15909 0.572784
248 1 63.546 5.33704 8.93181 7.33411 -3.0234 -2.16853 0.37019
150 1 63.546 8.8151 7.17132 5.26806 -5.10485 3.10628 -2.52301
249 1 63.546 7.34054 7.25214 7.09208 4.65143 -0.486799 -1.44787
228 1 63.546 5.48566 5.54691 7.2404 1.49612 -1.01627 -1.69201
131 1 63.546 7.14261 5.2514 5.0521 -1.33259 -1.21337 4.73666
146 1 63.546 5.38366 7.13634 5.43789 0.794147 -1.46152 -1.36666
231 1 63.546 7.25217 5.45885 8.99214 -0.959835 0.218237 -0.197772
246 1 63.546 5.5521 7.06617 9.02123 -3.34131 1.66159 -0.975009
251 1 63.546 7.28394 8.92217 9.03403 5.55876 -2.82595 1.3275
254 1 63.546 12.6289 7.32929 8.84523 1.60573 4.30302 -1.63757
250 1 63.546 9.07588 7.28602 8.95776 -0.707586 1.93649 -2.97684
232 1 63.546 9.03891 5.27595 7.14993 0.141021 1.8734 4.20538
235 1 63.546 10.8866 5.38944 8.97524 -1.26235 -3.03102 -5.21933
135 1 63.546 10.8426 5.41913 5.41583 2.54785 -3.01124 0.583392
154 1 63.546 12.4588 7.25657 5.25275 3.13242 2.33286 2.26956
253 1 63.546 10.7557 7.30907 7.11586 0.876588 4.4563 -0.07166
236 1 63.546 12.6759 5.35105 7.16124 -2.0067 0.580443 3.04904
258 1 63.546 16.2193 7.51922 8.88303 -0.236779 1.30034 1.17911
123 1 63.546 18.0924 5.26735 5.50767 3.07241 2.89329 -0.920901
139 1 63.546 14.5914 5.3445 5.517 3.63717 -0.277952 0.0282213
158 1 63.546 16.2641 7.18842 5.38078 1.04473 1.68198 -2.67129
240 1 63.546 16.4994 5.37386 7.38831 -4.76605 -0.841531 -7.01709
257 1 63.546 14.6166 7.22291 7.19405 -0.984195 -0.364208 3.87893
241 1 63.546 18.0822 7.34322 7.11288 -1.98792 -0.792249 -2.37217
202 1 63.546 1.7708 -0.0533141 9.04484 -2.86171 0.730924 -1.11141
203 1 63.546 0.0391315 1.74171 9.12387 -0.533329 -1.80772 -3.04913
301 1 63.546 -0.051367 -0.0439326 10.8105 -2.57172 -1.0436 1.22636
304 1 63.546 1.98234 1.5954 10.8335 -3.9099 -1.27621 -0.174184
307 1 63.546 3.59141 1.63239 12.7621 2.71249 -0.462114 1.40402
322 1 63.546 1.79933 3.51119 12.6944 0.537681 4.08218 1.08904
325 1 63.546 3.58471 3.45667 10.7954 4.43835 1.91992 -1.10685
303 1 63.546 0.0622378 1.69607 12.6817 2.11231 -1.21277 1.09737
321 1 63.546 -0.0190629 3.5369 10.8292 6.22596 5.85565 -2.15429
305 1 63.546 3.82077 0.0226297 10.9963 2.62687 -4.15972 1.55765
222 1 63.546 1.73424 3.5182 9.12379 -6.9799 -4.16788 0.607662
308 1 63.546 5.51998 1.94226 10.844 -1.64821 -0.419672 1.48831
311 1 63.546 7.18408 1.85796 12.6739 0.922368 -0.0252016 0.882951
326 1 63.546 5.21678 3.4637 12.7692 0.532689 -6.20796 -1.81473
329 1 63.546 7.30133 3.7863 10.8114 -1.78426 2.77209 -1.3727
312 1 63.546 9.00188 1.85958 10.8013 -3.59851 3.43782 7.50354
330 1 63.546 9.04827 3.65391 12.7328 -4.77622 2.95495 1.61406
310 1 63.546 9.10011 -0.0692812 12.7408 3.13411 -1.48223 2.17733
315 1 63.546 10.8245 1.83089 12.6595 3.824 0.341083 4.48401
316 1 63.546 12.6103 1.86106 10.779 -2.76838 1.02149 -1.80548
333 1 63.546 10.7852 3.51994 10.8139 -3.37081 1.85532 -3.09143
334 1 63.546 12.7062 3.57367 12.9213 -1.04417 1.73003 -3.29479
214 1 63.546 12.824 -0.0647167 9.08094 -3.8631 0.121274 4.90043
219 1 63.546 14.568 1.84012 9.06525 0.924594 0.0329265 0.0928089
238 1 63.546 16.3807 3.75011 9.10877 2.03901 -3.91867 -1.49186
319 1 63.546 14.2579 1.73163 12.6096 0.390457 -2.17833 0.532814
320 1 63.546 16.4068 1.90648 10.9317 -4.80648 3.30183 -2.64774
337 1 63.546 14.4603 3.70264 10.9364 -2.25616 -2.61883 -1.72531
338 1 63.546 16.4393 3.57731 12.7641 3.56782 -1.76901 0.741265
317 1 63.546 14.2741 -0.0494173 10.973 6.42841 -1.13387 -0.879327
347 1 63.546 3.60822 8.85982 12.536 1.06494 3.39475 0.361308
324 1 63.546 1.81774 5.29881 10.8556 -1.3452 1.92115 -0.540543
327 1 63.546 3.72852 5.36482 12.4761 1.31972 -0.0109212 0.0623881
342 1 63.546 1.9191 7.19358 12.4883 -2.79165 0.141612 0.679114
345 1 63.546 3.59823 7.38386 10.6023 1.28047 2.79535 -0.875522
344 1 63.546 1.67006 8.85103 10.8723 2.20018 -1.05088 0.424892
223 1 63.546 0.149741 5.36501 9.07591 -1.3058 -4.85865 -0.983598
323 1 63.546 0.0677992 5.44868 12.5935 -3.54797 -1.6835 0.17269
243 1 63.546 -0.063263 8.83171 9.047 1.66185 4.60868 -0.900102
328 1 63.546 5.48621 5.47703 10.8491 -1.55403 1.1103 2.72181
331 1 63.546 7.08431 5.27029 12.6395 -4.4303 2.1972 2.02211
346 1 63.546 5.22287 7.19275 12.4732 -0.282616 -3.22323 -4.60314
349 1 63.546 7.32429 7.37886 10.8375 2.43755 -3.53977 0.630065
351 1 63.546 7.15962 8.82492 12.8543 0.938221 -2.10315 0.226595
350 1 63.546 9.05805 7.19096 12.7523 -0.856377 2.21316 -0.198266
356 1 63.546 12.6717 8.97535 10.9103 -1.08055 -1.843 1.41252
332 1 63.546 9.12478 5.38453 10.8074 2.93595 -0.169996 -0.830445
335 1 63.546 10.812 5.42174 12.7461 -1.10345 0.0992374 -2.20521
336 1 63.546 12.679 5.45127 11.0827 -0.229384 -2.58969 1.49906
353 1 63.546 10.9425 7.16264 10.738 1.43487 -2.16405 -4.59885
354 1 63.546 12.6507 7.16525 12.9245 -1.29065 3.52779 1.47232
352 1 63.546 9.08662 8.78315 10.8289 2.91325 4.57068 -1.52531
341 1 63.546 18.1311 7.11385 11.0418 0.76865 0.752319 -1.05935
339 1 63.546 14.5666 5.40326 12.6768 -2.25105 3.59996 -6.12853
340 1 63.546 16.2958 5.49113 10.8437 1.82547 -0.676886 -2.08922
357 1 63.546 14.466 7.49074 10.776 0.0220789 -0.129601 -2.43976
358 1 63.546 16.3275 7.23934 12.705 1.89506 1.35443 -0.0697403
239 1 63.546 14.3629 5.55721 9.29047 0.130652 -1.5987 -2.92365
405 1 63.546 3.47343 0.0468742 14.4487 4.68601 -4.96958 -2.78952
404 1 63.546 1.6743 1.59057 14.7421 0.690628 0.475734 1.8277
407 1 63.546 3.47428 1.51837 16.2778 -2.81109 -0.188577 -1.04185
422 1 63.546 1.71861 3.5396 16.3142 -1.75208 -0.977992 -2.28247
425 1 63.546 3.61598 3.50383 14.5314 -0.152111 2.43134 -1.01943
25 1 63.546 3.56657 3.68331 18.1206 1.26074 0.613336 2.49415
21 1 63.546 0.0636221 3.52115 18.1082 4.97241 -6.88685 -0.0223677
9 1 63.546 7.09854 -0.0438111 18.1209 -1.93704 0.328505 2.55458
409 1 63.546 7.38481 0.193729 14.7542 3.49651 1.93045 1.57811
406 1 63.546 5.32043 -0.0582086 16.3861 2.96361 1.2584 -0.560393
408 1 63.546 5.37182 1.81838 14.5607 3.45354 1.00776 -1.27523
411 1 63.546 7.22083 1.89988 16.4593 0.498274 -0.786134 -1.41341
426 1 63.546 5.31886 3.52231 16.3946 3.97376 -4.87724 0.458843
429 1 63.546 7.11423 3.58633 14.4093 1.22707 -0.573874 -3.79215
430 1 63.546 9.01227 3.53784 16.4551 1.79042 0.224361 -1.46059
414 1 63.546 12.7294 -0.0455014 16.5377 -1.03532 -5.35238 -4.52685
412 1 63.546 9.18429 1.85578 14.4803 -0.461751 -1.46492 0.394938
413 1 63.546 10.6794 0.000898125 14.4085 1.7625 -0.692995 -0.465146
415 1 63.546 10.7923 1.70934 16.3128 -2.06666 0.631691 1.97257
416 1 63.546 12.4974 1.62631 14.5391 2.22989 -3.4073 -2.05632
433 1 63.546 10.924 3.70334 14.5857 -0.1752 0.324902 -7.95153
434 1 63.546 12.649 3.52354 16.3448 -0.964746 -3.84205 6.45213
16 1 63.546 12.7699 1.89709 18.0527 -1.03099 5.42502 1.54729
417 1 63.546 14.5156 -0.0581499 14.3921 3.97211 -4.56261 2.0294
403 1 63.546 18.0767 1.50016 16.237 -1.94746 0.32508 -1.21517
421 1 63.546 18.1194 3.54421 14.5077 2.96149 -1.47185 -1.32059
419 1 63.546 14.6806 1.81023 16.2685 -3.68092 3.71637 -5.68822
420 1 63.546 16.2234 1.55244 14.3052 2.59516 1.57052 -4.51747
437 1 63.546 14.4622 3.49509 14.5226 -2.36175 -0.087594 -1.1327
438 1 63.546 16.3862 3.53249 16.366 -1.19437 0.837572 -2.40666
37 1 63.546 14.4708 3.61607 18.0622 -0.709763 3.64538 2.67153
443 1 63.546 0.113903 8.92198 16.3838 -0.438219 1.61542 1.73983
442 1 63.546 1.88771 7.31191 16.2754 -1.36185 -0.225729 -1.85497
445 1 63.546 3.60314 7.18425 14.5314 -4.46432 -1.98956 0.831699
424 1 63.546 1.74152 5.35063 14.5353 -2.56535 -0.728999 -3.44266
427 1 63.546 3.4398 5.38445 16.3349 2.01759 3.71385 -6.84418
24 1 63.546 1.84315 5.38066 18.0623 3.32214 0.450729 1.96077
41 1 63.546 0.0600327 7.15553 18.0698 1.38154 0.77798 -1.7565
45 1 63.546 3.73967 7.49871 18.0862 -2.10799 -2.13305 -6.16107
452 1 63.546 9.00881 8.99358 14.6095 2.0283 3.13936 -0.910486
449 1 63.546 7.26974 7.10863 14.556 1.65241 -1.43126 -3.94619
446 1 63.546 5.34567 7.19649 16.2339 2.42376 -1.08263 -3.01551
431 1 63.546 7.10409 5.33155 16.277 -2.87862 -5.77516 2.72888
428 1 63.546 5.34305 5.40059 14.328 3.09266 -0.665809 -2.99735
28 1 63.546 5.20336 5.50803 17.9719 5.23205 2.72119 2.28262
49 1 63.546 7.16593 7.21545 17.986 0.939367 1.6697 -2.45037
432 1 63.546 9.15082 5.50788 14.606 1.46584 -0.0810434 -0.482923
435 1 63.546 10.905 5.39986 16.5324 0.741282 -0.67857 0.690168
450 1 63.546 9.05123 7.05186 16.4824 2.0092 0.60764 -1.45312
454 1 63.546 12.8716 7.36175 16.3585 -1.68973 -0.525031 1.74188
453 1 63.546 10.9369 7.39801 14.6584 -2.49202 -0.14774 2.79473
436 1 63.546 12.7002 5.48296 14.5233 -2.20018 4.02717 4.9468
423 1 63.546 18.1312 5.33867 16.3043 -0.126732 -2.44685 2.84552
439 1 63.546 14.5172 5.47991 16.2508 1.91456 -1.57865 -1.61818
460 1 63.546 16.3267 9.01155 14.5236 3.58146 6.19923 -1.57054
440 1 63.546 16.3278 5.38434 14.5572 0.600399 -1.13291 -0.232601
457 1 63.546 14.4877 7.32055 14.6336 -0.226502 -2.50614 1.66412
458 1 63.546 16.348 7.17697 16.3366 0.588525 1.40289 -3.82539
459 1 63.546 14.6222 9.02452 16.6691 -0.895007 -0.961334 1.57796
441 1 63.546 18.1353 7.13306 14.4928 -0.465321 1.72248 -0.19519
40 1 63.546 16.3499 5.26936 17.9749 3.18672 -1.73702 -0.221888
43 1 63.546 0.0820807 9.16025 1.63307 -3.96474 0.627 -0.758256
47 1 63.546 3.58108 9.27381 1.84455 -2.33094 1.53034 3.28913
62 1 63.546 1.78114 10.884 1.55347 -0.063407 -3.26232 -1.81929
67 1 63.546 3.67431 12.7609 1.58844 2.8314 -5.94044 0.00595458
164 1 63.546 1.8109 12.6028 3.49542 1.83193 -1.12296 4.33987
165 1 63.546 3.57994 10.9386 3.59341 1.01269 -0.00137289 -1.45123
66 1 63.546 5.59676 11.0429 1.84127 2.30599 3.75744 1.07527
71 1 63.546 7.25991 12.7974 1.89437 -0.992309 2.34874 4.22708
168 1 63.546 5.45532 12.6414 3.64417 1.43347 -0.0506901 0.969736
169 1 63.546 7.24238 10.8965 3.63332 1.5137 9.51437 -3.02751
70 1 63.546 9.01494 10.926 1.74189 1.66299 3.81029 -0.00137736
152 1 63.546 8.99888 9.1231 3.69807 1.87743 5.16307 -0.817302
148 1 63.546 5.25332 9.15531 3.59637 -0.0594995 -1.48729 4.13541
68 1 63.546 5.57947 12.6597 -0.0466823 -1.98146 3.37968 -1.18409
55 1 63.546 10.7242 9.08095 1.64119 -0.242279 0.474889 -1.51965
73 1 63.546 10.916 10.9355 -0.0296562 0.570268 -5.52763 4.55914
74 1 63.546 12.6258 10.806 1.79278 2.50109 1.91287 0.196521
75 1 63.546 10.9207 12.6452 1.77568 -1.05786 1.71359 -5.09108
76 1 63.546 12.7352 12.8674 0.11878 -0.841956 3.46082 -3.71726
172 1 63.546 9.22625 12.8281 3.57323 -1.89641 2.19227 -3.00787
173 1 63.546 10.9483 10.9735 3.54266 2.032 -2.43127 -2.55551
176 1 63.546 12.6074 12.8826 3.5237 -0.941472 -3.60539 3.80343
63 1 63.546 18.0976 12.6569 1.72452 0.329946 0.353261 -2.91391
161 1 63.546 18.1125 10.8308 3.56007 -3.05425 0.822203 -2.73401
78 1 63.546 16.5249 11.0093 1.71004 -0.498981 0.00684859 6.08868
79 1 63.546 14.4932 12.8808 1.86295 0.631303 -2.70495 -2.54368
59 1 63.546 14.4998 9.05306 1.69274 -1.2469 -0.548362 0.0912419
177 1 63.546 14.4751 11.0268 3.5508 -0.251556 -2.30289 3.19665
180 1 63.546 16.2351 12.8195 3.509 -1.39681 -0.325766 -0.453457
160 1 63.546 16.2199 9.18766 3.39376 1.68205 -0.6309 -2.40322
77 1 63.546 14.4694 10.8449 0.155092 -2.99311 -2.18416 0.530894
82 1 63.546 1.83383 14.5148 1.6792 -0.905155 0.0884669 -5.21763
87 1 63.546 3.63123 16.2139 1.71881 -0.192028 1.32842 1.74935
184 1 63.546 1.69688 16.3561 3.5881 -2.86458 -0.098635 -0.950106
185 1 63.546 3.69123 14.4612 3.44106 2.83386 -5.21617 3.43027
105 1 63.546 3.51086 18.0287 3.51855 2.06385 1.20728 -0.249871
101 1 63.546 -0.0514556 18.1264 3.65746 2.3032 -7.62716 3.21794
2 1 63.546 1.92664 18.133 1.7056 -4.70824 -5.12001 0.889148
84 1 63.546 1.75562 16.2869 0.108044 0.602068 3.49783 3.37882
86 1 63.546 5.49657 14.5709 1.7266 -0.743046 0.261084 -2.74437
6 1 63.546 5.41762 18.0984 2.01394 -0.688286 0.4515 0.0351034
91 1 63.546 7.07886 16.2884 1.77262 0.663926 -1.63904 3.247
188 1 63.546 5.41341 16.201 3.72181 -2.49333 -3.1521 0.113793
189 1 63.546 7.13531 14.4888 3.71779 1.60758 4.28228 0.726713
90 1 63.546 8.96713 14.6711 1.86656 1.33229 2.72249 0.0326748
10 1 63.546 8.89951 18.0803 1.63505 -1.48024 -0.489723 2.07951
109 1 63.546 7.25538 18.0163 3.54727 -1.20098 2.83418 -0.598748
92 1 63.546 9.02953 16.3066 -0.0305702 3.0076 1.10524 0.637757
89 1 63.546 7.19269 14.5398 -0.00928767 -0.96118 0.590997 -0.343493
192 1 63.546 9.22208 16.3995 3.59285 -2.04799 0.634722 -0.775122
113 1 63.546 11.0803 18.0737 3.44683 1.41863 3.58981 0.185863
14 1 63.546 12.6561 17.9624 1.644 -1.00275 -1.16555 4.12331
94 1 63.546 12.5116 14.5848 1.79649 -0.880749 -2.04207 0.114898
95 1 63.546 10.7526 16.2032 1.69477 -4.40809 2.16065 2.06765
193 1 63.546 10.9804 14.7777 3.72818 -1.18779 5.29397 1.24996
196 1 63.546 12.8135 16.4138 3.59769 4.17788 2.37838 0.100002
93 1 63.546 10.6497 14.3488 -0.0192981 1.63588 2.49761 2.24497
13 1 63.546 10.8243 18.103 0.0352794 -2.16904 1.60157 1.53691
83 1 63.546 18.0117 16.4365 1.85204 3.75771 1.99388 1.46744
181 1 63.546 18.1386 14.4456 3.45153 4.10697 1.17575 0.474377
1 1 63.546 18.139 17.992 -0.00457054 -3.8262 -1.16498 3.30052
98 1 63.546 16.2204 14.6369 1.8459 -1.12809 -5.714 -5.84539
99 1 63.546 14.2607 16.326 1.56173 -0.0804872 1.1848 -3.01546
197 1 63.546 14.5151 14.5524 3.77015 -1.47493 -0.156208 4.55119
200 1 63.546 16.2204 16.2319 3.65521 -0.00191085 2.12161 -1.09078
117 1 63.546 14.729 18.0758 3.72609 3.17737 0.13981 -2.61038
100 1 63.546 16.2692 16.3915 0.0187935 -3.63844 -3.43648 -2.92872
97 1 63.546 14.5185 14.5404 -0.0388269 2.5409 1.14016 3.7071
81 1 63.546 17.9065 14.6313 -0.00279848 0.913657 3.13264 0.55249
162 1 63.546 1.82419 10.6598 5.31989 -1.41474 -2.57986 0.730803
167 1 63.546 3.49678 12.7747 5.43633 -8.68846 -0.597536 1.30027
264 1 63.546 1.70107 12.6935 7.20034 3.38224 -1.1107 3.66597
265 1 63.546 3.61111 10.8827 7.07532 -3.77089 -3.97898 1.64431
262 1 63.546 1.67469 10.7567 8.93651 -1.94043 2.13613 -0.0841908
163 1 63.546 0.0875002 12.8146 5.39454 0.105273 -0.328673 3.22694
261 1 63.546 0.0551361 10.8639 7.05476 1.1667 -0.52473 2.59019
151 1 63.546 7.10961 9.10398 5.43736 2.78395 0.85705 -4.50414
166 1 63.546 5.51422 10.9044 5.40443 0.420759 1.78259 -2.49367
171 1 63.546 7.06171 12.8513 5.41362 -3.28477 -1.0895 4.80807
268 1 63.546 5.29894 12.6993 7.1028 -0.16053 4.57536 -2.40998
269 1 63.546 7.24388 10.7801 7.48875 -1.26299 -2.51432 -2.4035
272 1 63.546 8.82927 12.7297 7.19265 7.40277 1.58257 0.59377
170 1 63.546 8.74859 11.1169 5.44095 -2.48451 -1.25268 -2.30705
266 1 63.546 5.27599 10.7817 8.97452 -0.860463 1.74581 2.47637
155 1 63.546 10.9171 9.16918 5.27218 -4.23819 -0.682093 2.61745
252 1 63.546 9.14074 9.25842 6.91454 1.42729 4.59272 -0.823627
174 1 63.546 12.7372 10.9067 5.37156 -3.11086 0.864993 2.31519
175 1 63.546 10.7615 12.6674 5.46973 -0.270077 0.954064 2.89479
256 1 63.546 12.7493 9.08005 7.171 -0.238398 -3.74346 1.98194
273 1 63.546 10.8642 10.9089 7.35276 -0.909964 3.52941 -0.618961
276 1 63.546 12.7609 12.7538 7.40408 2.29015 0.736693 6.30752
255 1 63.546 10.7874 9.09712 8.88664 -0.0326377 -2.86243 3.09455
159 1 63.546 14.3009 9.10026 5.26125 -2.00765 -0.205647 2.29935
178 1 63.546 16.305 10.9844 5.35655 -2.84776 -3.57135 -4.85067
179 1 63.546 14.5348 12.7384 5.39583 -2.73357 -4.54309 4.43241
260 1 63.546 16.3235 9.10894 6.85056 -0.41486 -1.6659 -0.854237
277 1 63.546 14.553 11.0418 7.14269 -2.7145 -0.101935 -0.911139
280 1 63.546 16.4795 12.7795 7.18122 2.94255 -0.307813 4.29269
278 1 63.546 16.4952 10.8283 8.79319 -1.08563 1.40621 1.04837
279 1 63.546 14.5432 12.7119 8.90614 2.84556 -1.26107 2.34002
259 1 63.546 14.6277 9.27726 8.96936 -1.36987 1.29362 -0.0739924
285 1 63.546 3.49136 14.614 7.26609 1.64221 -3.358 1.43701
284 1 63.546 1.55607 16.3749 7.16499 0.195845 3.43737 -2.25817
182 1 63.546 1.71424 14.5707 5.35575 -1.20211 2.19942 3.37777
187 1 63.546 3.68041 16.3951 5.5212 -0.990242 -5.58672 -0.0659998
282 1 63.546 1.69638 14.3525 9.01759 -5.45588 -0.692559 -1.492
287 1 63.546 3.48986 16.3894 9.01635 1.99531 -1.53668 1.9984
106 1 63.546 5.44922 18.1316 5.37822 -4.14328 2.66188 -2.50422
110 1 63.546 9.01592 18.0741 5.19714 0.167221 -1.36867 -0.893394
292 1 63.546 8.98417 16.3769 7.45807 -0.933613 -1.43072 2.16233
186 1 63.546 5.37827 14.6141 5.5319 -0.560261 1.70208 0.879468
289 1 63.546 7.34241 14.4469 7.43443 1.10488 2.15678 -0.373689
288 1 63.546 5.28504 16.285 7.22325 2.19111 4.07909 3.62947
191 1 63.546 7.34441 16.362 5.40157 2.86219 -2.51341 0.0994319
286 1 63.546 5.45962 14.486 8.92004 -1.10523 4.42048 -2.50584
206 1 63.546 5.33202 18.0577 9.02735 2.66345 1.42622 -0.626127
291 1 63.546 7.09838 16.3422 8.93276 -1.16009 -2.23728 -1.5334
194 1 63.546 12.6842 14.5946 5.45147 -0.0662444 -0.496546 -3.57464
190 1 63.546 9.08681 14.6767 5.71387 0.660579 0.401277 -2.7747
290 1 63.546 9.18616 14.273 9.01797 0.0185289 -1.7991 1.05646
195 1 63.546 10.9554 16.5274 5.59445 -0.813332 2.16375 3.63224
296 1 63.546 12.6721 16.2822 7.3111 0.122387 -1.50458 -0.115085
293 1 63.546 10.9337 14.426 7.2846 1.69876 0.0639933 4.57194
295 1 63.546 10.9442 16.3115 8.99998 0.366775 0.713962 0.751612
198 1 63.546 16.242 14.6933 5.51491 0.397336 0.837599 1.97407
199 1 63.546 14.5581 16.3643 5.53275 2.4395 4.70316 -1.87171
297 1 63.546 14.6199 14.5131 7.18012 1.95336 -1.06698 -0.849518
300 1 63.546 16.3402 16.4701 7.17449 -3.52455 0.234837 3.35917
183 1 63.546 18.0359 16.4017 5.22064 -2.74008 3.26022 -3.25359
281 1 63.546 18.1344 14.5769 7.31887 -4.29054 0.068683 -1.64923
267 1 63.546 3.36951 12.6053 9.10386 -0.423395 -8.40653 2.96218
362 1 63.546 1.64155 10.7628 12.6583 -0.658035 3.2879 1.50323
364 1 63.546 1.57298 12.5644 11.033 3.08483 -2.90929 -1.06423
365 1 63.546 3.33567 10.71 10.7294 -3.02364 -0.868872 -0.892263
367 1 63.546 3.41741 12.7397 12.6146 1.6959 -0.627891 -2.51857
343 1 63.546 0.0342967 9.0381 12.6752 1.7041 -3.2538 -1.33297
263 1 63.546 -0.0702763 12.623 9.07741 -0.380776 1.13629 5.00556
271 1 63.546 7.09419 12.6007 9.30217 2.3575 0.0570008 1.43372
366 1 63.546 5.23559 10.8673 12.6061 -1.07431 -2.81494 -1.50658
368 1 63.546 5.29306 12.341 10.828 -3.55855 4.11284 4.90825
369 1 63.546 7.22469 10.6981 10.83 -2.64326 1.59966 1.44778
371 1 63.546 7.16645 12.6079 12.6724 -1.51516 -1.95425 2.26655
370 1 63.546 8.99328 10.7063 12.8037 1.75516 -0.124125 -1.43475
372 1 63.546 8.98547 12.6262 10.9982 -2.27991 0.102251 2.70741
348 1 63.546 5.3487 9.17535 10.8449 2.1747 1.99227 1.65962
270 1 63.546 9.05484 10.8936 9.11922 1.28661 -4.50192 -2.43641
275 1 63.546 11.039 12.5174 9.18752 0.400632 3.85182 -4.1594
355 1 63.546 11.0165 9.04166 12.6817 1.92919 -1.72607 -0.925752
373 1 63.546 10.7651 10.6015 10.9591 1.74163 3.34472 -2.31153
374 1 63.546 12.628 10.7494 12.7724 -6.12273 -2.07521 1.07436
375 1 63.546 10.9225 12.6542 12.558 1.03623 4.20101 1.03052
376 1 63.546 12.8244 12.7481 10.7975 -0.818318 -1.35153 -0.967011
274 1 63.546 12.751 10.8309 9.09472 -5.99981 -3.15207 -1.86453
363 1 63.546 17.9705 12.7083 12.7472 5.0361 -0.481219 -2.12459
361 1 63.546 18.074 10.7407 10.8129 5.05045 -0.616334 1.72983
359 1 63.546 14.5473 9.04824 12.7762 -2.80604 -2.41151 -1.01671
360 1 63.546 16.4825 9.04612 10.8416 -2.15721 2.00714 1.45556
377 1 63.546 14.5088 10.8129 10.8986 0.495511 3.93665 0.903837
378 1 63.546 16.3959 10.8096 12.7453 0.435645 1.13056 -0.782349
379 1 63.546 14.4883 12.6567 12.6457 0.939629 -0.164898 4.1219
380 1 63.546 16.2279 12.6486 10.7252 -0.830634 -0.523412 -0.518998
382 1 63.546 1.85591 14.6769 12.5977 0.0615475 3.39616 0.437992
384 1 63.546 1.84387 16.4785 10.8543 -0.830678 -3.24744 1.8534
385 1 63.546 3.73696 14.5956 10.841 0.168224 -1.77607 -0.756329
387 1 63.546 3.76563 16.4088 12.6549 2.76921 3.73981 -0.832269
302 1 63.546 1.78908 18.1379 12.7373 0.013879 -1.62468 0.769954
283 1 63.546 -0.0312037 16.3267 9.07093 0.195676 -1.37124 1.83954
386 1 63.546 5.28316 14.4644 12.7978 -1.61528 1.79735 -1.69628
388 1 63.546 5.47384 16.3403 10.9828 1.15322 -1.90198 -1.37404
389 1 63.546 7.25855 14.5816 10.7477 0.427128 -1.83595 0.474544
391 1 63.546 7.29488 16.3631 12.7231 -4.9748 -2.86531 -0.443462
390 1 63.546 8.96227 14.4968 12.5106 2.23442 -0.758555 0.908561
392 1 63.546 8.84651 16.3002 10.6636 0.819233 2.07247 0.177408
309 1 63.546 7.27417 18.1005 10.8542 -2.22618 5.58656 -5.75034
306 1 63.546 5.5654 18.0838 12.8388 -0.635307 1.12144 0.496446
314 1 63.546 12.546 18.112 12.8163 0.420156 1.27946 0.492642
393 1 63.546 10.8696 14.3196 10.7929 -0.251788 -3.558 2.37965
394 1 63.546 12.628 14.3814 12.6483 0.645853 1.7827 -2.13906
395 1 63.546 10.8115 16.2553 12.5868 -0.151229 -1.51964 -0.141272
396 1 63.546 12.7317 16.1407 10.9011 1.57431 -3.62631 -4.85082
313 1 63.546 10.7794 18.1025 10.8869 2.76141 5.23356 -0.321607
294 1 63.546 12.7081 14.4124 9.07531 2.56679 -0.566359 0.673689
381 1 63.546 17.9904 14.4961 10.8808 -1.63026 -0.266404 -0.20179
383 1 63.546 18.1016 16.2251 12.5603 0.737816 -2.42582 -1.70247
318 1 63.546 16.1811 18.0876 12.6032 -2.81075 1.92256 -3.32646
299 1 63.546 14.3667 16.2306 9.059 -0.797438 4.13789 2.28225
397 1 63.546 14.6563 14.5788 10.6388 -3.99454 -5.8693 -1.90413
398 1 63.546 16.1674 14.4772 12.8238 0.967802 -6.07863 3.85677
399 1 63.546 14.5101 16.2863 12.7755 1.56144 0.780977 -2.29018
400 1 63.546 16.1841 16.3751 10.7604 0.224773 -1.45958 -0.00973814
298 1 63.546 16.3189 14.5855 9.0589 -0.452124 3.92583 -5.30566
444 1 63.546 1.7967 9.03963 14.2363 -5.69275 -3.64171 -2.30869
447 1 63.546 3.56587 9.09641 16.2178 4.5771 -1.18883 0.885614
462 1 63.546 1.80364 10.9513 16.1576 -0.505502 -3.79628 0.941468
464 1 63.546 1.64907 12.6367 14.2441 0.8804 1.82815 -2.15226
465 1 63.546 3.54324 10.7891 14.356 5.44615 -3.37853 -0.181752
467 1 63.546 3.53975 12.6463 16.2255 -2.46305 -6.35038 1.86357
64 1 63.546 1.62338 12.8081 18.0644 -0.160257 -3.53959 0.800199
65 1 63.546 3.58305 10.6641 18.1095 -2.15991 -0.788305 -3.55446
61 1 63.546 -0.0189346 10.9459 17.9825 -2.83398 0.710108 3.67135
44 1 63.546 1.84654 9.05815 18.0687 -0.222697 -5.52372 1.06561
448 1 63.546 5.46685 9.09398 14.4645 0.393668 0.0800872 -1.64562
451 1 63.546 7.23695 9.06178 16.3451 -5.88636 -0.85049 5.78623
466 1 63.546 5.32877 10.8885 16.1933 2.32522 0.861818 -1.61491
468 1 63.546 5.33165 12.7263 14.5462 2.40122 -2.30185 -2.10521
469 1 63.546 7.25504 10.9003 14.4617 -0.128026 2.54425 0.217611
471 1 63.546 7.20402 12.6675 16.3188 -0.247835 0.864595 2.86903
69 1 63.546 7.24022 10.7786 18.0628 0.687455 -3.92992 5.36022
72 1 63.546 8.93399 12.7321 18.0687 -1.06541 -2.09601 -1.88825
48 1 63.546 5.51314 9.29843 18.0206 -0.195566 2.59856 -2.20925
470 1 63.546 9.10348 10.806 16.3064 5.87939 -0.915755 1.2539
455 1 63.546 10.7894 9.26575 16.4655 -1.35752 -2.93399 1.72511
456 1 63.546 12.6727 9.05575 14.6243 1.39357 2.077 -3.26636
472 1 63.546 9.05776 12.7262 14.437 0.288437 1.57577 0.932624
473 1 63.546 10.8644 10.7735 14.6491 -0.915572 -0.656357 0.691788
474 1 63.546 12.8459 10.8017 16.4876 -2.25751 -2.26913 0.444599
475 1 63.546 11.0403 12.5629 16.3187 0.500488 2.79252 3.57554
476 1 63.546 12.6963 12.5837 14.4215 -2.21642 1.70089 -1.52506
463 1 63.546 18.1202 12.8312 16.2872 -0.624121 6.57712 -1.15218
461 1 63.546 18.0665 10.7669 14.651 0.375924 2.90548 4.92884
477 1 63.546 14.6586 10.8256 14.5535 -0.737847 -0.0192357 3.98005
478 1 63.546 16.3669 10.7117 16.473 0.0977046 3.17497 -5.53838
479 1 63.546 14.5212 12.6155 16.3328 -1.05492 2.63451 2.78204
480 1 63.546 16.3516 12.7638 14.5007 3.91473 0.597105 0.997577